ITEM: TIMESTEP
0
ITEM: NUMBER OF ATOMS
84
ITEM: BOX BOUNDS pp pp pp
36.8402 64.2116
41.0137 68.3851
29.7681 57.1395
ITEM: ATOMS id type xs ys zs
23 11 0.20003 0.487665 0.207442
25 11 0.174882 0.478324 0.125197
12 8 0.147779 0.545559 0.226752
13 8 0.169625 0.509658 0.195245
14 8 0.105944 0.569802 0.208113
15 8 0.152748 0.502111 0.147583
16 8 0.0884722 0.561837 0.159004
17 8 0.11264 0.527823 0.12799
18 9 0.096504 0.519357 0.0785695
19 10 0.247198 0.570057 0.246949
24 11 0.088527 0.595457 0.232513
26 11 0.0577712 0.583408 0.146797
27 10 0.070955 0.542482 0.0720441
2 2 0.301912 0.629172 0.222818
4 4 0.324315 0.596765 0.232588
5 4 0.324515 0.662111 0.215626
6 4 0.285921 0.624072 0.185862
35 5 0.234834 0.490283 0.44946
39 10 0.199055 0.487233 0.443351
41 4 0.243209 0.421396 0.445944
36 7 0.258808 0.448484 0.470023
40 4 0.297554 0.455258 0.466907
7 5 0.235346 0.601379 0.261274
8 6 0.191126 0.60067 0.287018
9 1 0.195813 0.605165 0.341727
10 3 0.184361 0.64333 0.363003
11 7 0.161129 0.553109 0.27949
20 4 0.170105 0.631965 0.275373
21 4 0.184309 0.521752 0.290759
22 4 0.126731 0.554711 0.300978
28 5 0.217714 0.568112 0.366146
29 7 0.223843 0.575057 0.420624
32 10 0.229965 0.538638 0.348597
33 4 0.190225 0.579201 0.440861
34 4 0.244386 0.608283 0.426182
1 1 0.261578 0.639832 0.256378
3 3 0.254828 0.677189 0.280288
30 1 0.255376 0.536188 0.444057
31 3 0.297574 0.544998 0.45482
59 11 0.242507 0.229405 0.508431
61 11 0.164927 0.223561 0.539706
37 1 0.243683 0.43875 0.523796
38 3 0.20133 0.440787 0.538518
49 8 0.204403 0.316127 0.612586
50 8 0.234601 0.2554 0.537043
51 8 0.171973 0.284349 0.59135
52 8 0.187861 0.251861 0.554873
54 4 0.243792 0.422925 0.617537
58 11 0.191386 0.34103 0.640285
60 11 0.134668 0.283057 0.604141
42 5 0.280551 0.424957 0.552155
43 6 0.278966 0.414186 0.601938
44 1 0.312808 0.450547 0.627634
45 3 0.306708 0.494869 0.626651
46 7 0.290062 0.358572 0.611377
47 8 0.251418 0.322666 0.592328
48 8 0.266991 0.29195 0.555466
53 10 0.312549 0.419989 0.535477
55 4 0.294355 0.348154 0.650371
56 4 0.324455 0.346336 0.593629
57 11 0.303074 0.294674 0.539734
62 5 0.349792 0.432901 0.654509
63 6 0.380367 0.462825 0.684786
64 1 0.420105 0.489098 0.656553
65 3 0.454165 0.469049 0.635606
66 7 0.403454 0.429029 0.724632
70 10 0.3592 0.397758 0.656314
71 4 0.358248 0.49036 0.702377
72 4 0.422829 0.398025 0.707001
73 4 0.37438 0.414238 0.748787
75 4 0.471181 0.462415 0.73922
79 5 0.420312 0.537206 0.658969
80 2 0.45806 0.566426 0.640334
81 10 0.3901 0.551762 0.673185
82 4 0.495947 0.552281 0.643801
83 4 0.452844 0.602755 0.657669
84 4 0.454706 0.56655 0.599884
67 7 0.437865 0.456584 0.76166
69 2 0.397044 0.479191 0.850254
74 4 0.450123 0.431084 0.790764
77 4 0.43327 0.471389 0.866818
78 4 0.378399 0.444598 0.840095
68 12 0.412282 0.511119 0.791422
76 4 0.377977 0.505216 0.874885
ITEM: TIMESTEP
10
ITEM: NUMBER OF ATOMS
84
ITEM: BOX BOUNDS pp pp pp
36.8402 64.2116
41.0137 68.3851
29.7681 57.1395
ITEM: ATOMS id type xs ys zs
23 11 0.199273 0.48513 0.209218
25 11 0.169599 0.472583 0.12649
12 8 0.146039 0.543309 0.225679
13 8 0.170873 0.508924 0.195646
14 8 0.105882 0.56683 0.208001
15 8 0.154489 0.501999 0.148014
16 8 0.0898172 0.559565 0.161548
17 8 0.114049 0.528939 0.130791
18 9 0.0956725 0.518317 0.0836235
19 10 0.239221 0.568824 0.242073
24 11 0.0865519 0.59152 0.231952
26 11 0.0558259 0.576802 0.151332
27 10 0.0705872 0.541752 0.0764341
2 2 0.302561 0.632876 0.218391
4 4 0.328713 0.604179 0.230227
5 4 0.32197 0.668404 0.215467
6 4 0.287428 0.622958 0.182056
35 5 0.235425 0.491901 0.447229
39 10 0.200674 0.491686 0.436318
41 4 0.25058 0.417864 0.445431
36 7 0.258777 0.447643 0.469984
40 4 0.296728 0.458003 0.473033
7 5 0.233997 0.59832 0.262797
8 6 0.187395 0.598763 0.286729
9 1 0.197253 0.605833 0.341217
10 3 0.18238 0.641626 0.363555
11 7 0.16006 0.549747 0.277202
20 4 0.166469 0.629521 0.273579
21 4 0.182959 0.518575 0.28951
22 4 0.125445 0.54839 0.298357
28 5 0.220903 0.571143 0.366061
29 7 0.226156 0.574326 0.416676
32 10 0.231911 0.540833 0.349123
33 4 0.190856 0.567716 0.433019
34 4 0.2402 0.609907 0.426349
1 1 0.26488 0.637743 0.256185
3 3 0.259789 0.678062 0.275725
30 1 0.257754 0.536504 0.439593
31 3 0.297213 0.544238 0.457053
59 11 0.246452 0.230831 0.506239
61 11 0.162832 0.226524 0.538393
37 1 0.244339 0.435525 0.521039
38 3 0.203074 0.439595 0.538774
49 8 0.203796 0.317422 0.614298
50 8 0.236281 0.255039 0.535691
51 8 0.17265 0.282212 0.594198
52 8 0.188311 0.252285 0.554017
54 4 0.242516 0.422383 0.614274
58 11 0.194629 0.336073 0.647838
60 11 0.137871 0.280465 0.612753
42 5 0.283128 0.421681 0.549102
43 6 0.278805 0.413894 0.601316
44 1 0.31312 0.451249 0.628344
45 3 0.308644 0.495392 0.620931
46 7 0.289851 0.358777 0.613353
47 8 0.250621 0.323727 0.593132
48 8 0.265934 0.292672 0.55486
53 10 0.316119 0.419012 0.533897
55 4 0.287966 0.351834 0.653301
56 4 0.325303 0.343956 0.600276
57 11 0.302336 0.297265 0.540344
62 5 0.349928 0.433923 0.657309
63 6 0.381942 0.463431 0.68616
64 1 0.422357 0.489197 0.658335
65 3 0.457094 0.466646 0.639109
66 7 0.404438 0.432894 0.72729
70 10 0.355103 0.398355 0.663215
71 4 0.359189 0.492208 0.700688
72 4 0.428809 0.403621 0.713266
73 4 0.373102 0.416445 0.747166
75 4 0.469961 0.469875 0.739747
79 5 0.416458 0.538915 0.653044
80 2 0.458871 0.568976 0.642515
81 10 0.384678 0.552765 0.664226
82 4 0.491958 0.546486 0.649371
83 4 0.463245 0.601862 0.665902
84 4 0.466504 0.575831 0.603243
67 7 0.438432 0.459097 0.762927
69 2 0.398921 0.480237 0.84933
74 4 0.452029 0.430692 0.788537
77 4 0.43345 0.477963 0.870547
78 4 0.381552 0.444644 0.840441
68 12 0.410916 0.509386 0.791806
76 4 0.374364 0.506195 0.868582
ITEM: TIMESTEP
20
ITEM: NUMBER OF ATOMS
84
ITEM: BOX BOUNDS pp pp pp
36.8402 64.2116
41.0137 68.3851
29.7681 57.1395
ITEM: ATOMS id type xs ys zs
23 11 0.205551 0.492081 0.207799
25 11 0.176088 0.478944 0.12082
12 8 0.145358 0.539977 0.227079
13 8 0.171485 0.507984 0.19582
14 8 0.105678 0.565771 0.209326
15 8 0.156054 0.500532 0.147078
16 8 0.089167 0.559731 0.161073
17 8 0.113418 0.526159 0.133012
18 9 0.0955089 0.516796 0.0868296
19 10 0.245535 0.567824 0.242019
24 11 0.0850787 0.586763 0.235629
26 11 0.0601024 0.581224 0.145256
27 10 0.0794378 0.546504 0.077381
2 2 0.305452 0.634979 0.214857
4 4 0.331912 0.607327 0.228375
5 4 0.324746 0.67069 0.214873
6 4 0.291104 0.622275 0.179076
35 5 0.23603 0.490192 0.446831
39 10 0.200352 0.490363 0.439495
41 4 0.241385 0.419783 0.448824
36 7 0.260505 0.448807 0.467503
40 4 0.299179 0.451826 0.460288
7 5 0.234626 0.598602 0.258158
8 6 0.187661 0.596695 0.287887
9 1 0.195505 0.604522 0.341423
10 3 0.178519 0.64076 0.363017
11 7 0.161409 0.546304 0.280552
20 4 0.163925 0.626104 0.276548
21 4 0.18351 0.514933 0.293779
22 4 0.127274 0.543582 0.302344
28 5 0.223677 0.570941 0.364663
29 7 0.226179 0.573209 0.417456
32 10 0.239305 0.543382 0.346691
33 4 0.189641 0.569715 0.431936
34 4 0.243876 0.607034 0.427435
1 1 0.26535 0.638002 0.249744
3 3 0.262009 0.675323 0.27383
30 1 0.257397 0.53503 0.443608
31 3 0.299131 0.543581 0.456598
59 11 0.246326 0.240156 0.505704
61 11 0.161892 0.224355 0.544859
37 1 0.247829 0.437667 0.518716
38 3 0.205963 0.440198 0.535106
49 8 0.206911 0.317858 0.611748
50 8 0.233365 0.26162 0.53617
51 8 0.173905 0.278909 0.595088
52 8 0.187635 0.251717 0.556922
54 4 0.243144 0.423626 0.613395
58 11 0.194721 0.344723 0.637951
60 11 0.138155 0.276443 0.611604
42 5 0.283848 0.417905 0.548691
43 6 0.279141 0.413101 0.601136
44 1 0.315175 0.449151 0.624826
45 3 0.310887 0.492433 0.615228
46 7 0.287882 0.362233 0.618159
47 8 0.255449 0.323556 0.593682
48 8 0.266794 0.293733 0.554096
53 10 0.31614 0.409222 0.534248
55 4 0.28168 0.358976 0.65814
56 4 0.325347 0.351207 0.6071
57 11 0.302859 0.294892 0.538134
62 5 0.34727 0.432791 0.657657
63 6 0.380545 0.464166 0.687728
64 1 0.421575 0.489429 0.656299
65 3 0.457389 0.466463 0.643214
66 7 0.40544 0.432049 0.728748
70 10 0.348133 0.396705 0.662538
71 4 0.360467 0.493605 0.704671
72 4 0.421964 0.399785 0.710486
73 4 0.374201 0.418394 0.750774
75 4 0.474039 0.477714 0.744192
79 5 0.421005 0.537445 0.648489
80 2 0.460277 0.569777 0.642816
81 10 0.389447 0.553808 0.656432
82 4 0.497767 0.559269 0.654289
83 4 0.450035 0.600163 0.667702
84 4 0.460788 0.58982 0.607524
67 7 0.442547 0.460322 0.762987
69 2 0.399596 0.480516 0.851411
74 4 0.456312 0.432669 0.78932
77 4 0.434708 0.477835 0.871597
78 4 0.383572 0.443811 0.844812
68 12 0.409061 0.510813 0.792117
76 4 0.373553 0.500858 0.87498
ITEM: TIMESTEP
30
ITEM: NUMBER OF ATOMS
84
ITEM: BOX BOUNDS pp pp pp
36.8402 64.2116
41.0137 68.3851
29.7681 57.1395
ITEM: ATOMS id type xs ys zs
23 11 0.201952 0.484937 0.209555
25 11 0.173024 0.475031 0.12703
12 8 0.14643 0.537474 0.230469
13 8 0.172444 0.508435 0.19798
14 8 0.107851 0.565278 0.212991
15 8 0.154975 0.501591 0.149958
16 8 0.0907793 0.558104 0.16326
17 8 0.113026 0.52443 0.131744
18 9 0.0962739 0.515121 0.0827212
19 10 0.238916 0.573592 0.226019
24 11 0.0940467 0.594763 0.235283
26 11 0.0594825 0.57725 0.148741
27 10 0.0708769 0.538893 0.0782468
2 2 0.306248 0.632357 0.211861
4 4 0.33495 0.604644 0.219323
5 4 0.324837 0.668435 0.212406
6 4 0.288112 0.623616 0.176616
35 5 0.237503 0.489851 0.450609
39 10 0.201686 0.49016 0.443989
41 4 0.252917 0.414705 0.440765
36 7 0.262139 0.444528 0.464898
40 4 0.300374 0.454227 0.463958
7 5 0.23487 0.598777 0.252021
8 6 0.193716 0.595099 0.28411
9 1 0.19795 0.603419 0.339545
10 3 0.174986 0.63609 0.361203
11 7 0.164172 0.5467 0.280625
20 4 0.171003 0.624238 0.270258
21 4 0.186733 0.514534 0.290814
22 4 0.132758 0.544205 0.306206
28 5 0.22325 0.570647 0.367755
29 7 0.226319 0.575129 0.422033
32 10 0.237634 0.541563 0.351203
33 4 0.190584 0.568629 0.437449
34 4 0.244025 0.608047 0.434673
1 1 0.264849 0.637735 0.248311
3 3 0.259692 0.674331 0.275143
30 1 0.25905 0.534429 0.441816
31 3 0.29971 0.542413 0.455918
59 11 0.24531 0.240738 0.499025
61 11 0.164698 0.226484 0.549872
37 1 0.249142 0.433911 0.516232
38 3 0.208974 0.445843 0.53251
49 8 0.206763 0.320385 0.616436
50 8 0.23524 0.260871 0.531431
51 8 0.17665 0.283353 0.59632
52 8 0.19157 0.25407 0.558465
54 4 0.243271 0.42531 0.609022
58 11 0.197174 0.339674 0.649494
60 11 0.143007 0.277223 0.616003
42 5 0.285209 0.417937 0.547378
43 6 0.279155 0.412199 0.599156
44 1 0.314331 0.449416 0.623774
45 3 0.314723 0.492525 0.609753
46 7 0.288947 0.357545 0.619093
47 8 0.252864 0.324136 0.594414
48 8 0.267088 0.294679 0.553143
53 10 0.31734 0.409701 0.532327
55 4 0.280219 0.358413 0.658724
56 4 0.326739 0.345519 0.61045
57 11 0.303091 0.304198 0.540104
62 5 0.346864 0.432221 0.658024
63 6 0.381705 0.462622 0.68508
64 1 0.423498 0.487822 0.65776
65 3 0.459705 0.463288 0.644547
66 7 0.405717 0.433656 0.728214
70 10 0.346286 0.397545 0.669161
71 4 0.361302 0.492596 0.700641
72 4 0.427182 0.404649 0.70963
73 4 0.377638 0.415045 0.750859
75 4 0.469675 0.478542 0.740455
79 5 0.417624 0.537347 0.649927
80 2 0.459708 0.570331 0.642269
81 10 0.385173 0.553181 0.654722
82 4 0.496113 0.553236 0.647746
83 4 0.464139 0.605581 0.661899
84 4 0.459908 0.585555 0.604643
67 7 0.438397 0.462882 0.761046
69 2 0.400417 0.481026 0.8514
74 4 0.454536 0.440894 0.791106
77 4 0.436591 0.476639 0.869282
78 4 0.382433 0.444673 0.849784
68 12 0.408416 0.512102 0.793841
76 4 0.375707 0.500589 0.876977
ITEM: TIMESTEP
40
ITEM: NUMBER OF ATOMS
84
ITEM: BOX BOUNDS pp pp pp
36.8402 64.2116
41.0137 68.3851
29.7681 57.1395
ITEM: ATOMS id type xs ys zs
23 11 0.201776 0.483814 0.210772
25 11 0.172772 0.471871 0.126771
12 8 0.150332 0.540432 0.227747
13 8 0.169812 0.503669 0.198901
14 8 0.108494 0.566216 0.210798
15 8 0.154309 0.497391 0.150536
16 8 0.0902291 0.558186 0.164906
17 8 0.114345 0.525148 0.133372
18 9 0.0993473 0.514659 0.0845912
19 10 0.241415 0.571786 0.225175
24 11 0.0875462 0.592128 0.231931
26 11 0.0565817 0.57614 0.154788
27 10 0.0774009 0.541125 0.0776602
2 2 0.303164 0.634655 0.211468
4 4 0.32467 0.601398 0.220358
5 4 0.330564 0.664571 0.212819
6 4 0.287339 0.627902 0.174705
35 5 0.238428 0.488299 0.448843
39 10 0.202878 0.48367 0.442395
41 4 0.251958 0.414667 0.445173
36 7 0.265549 0.44583 0.4652
40 4 0.304405 0.449993 0.459742
7 5 0.235061 0.597935 0.249724
8 6 0.194673 0.594942 0.284447
9 1 0.198756 0.600459 0.340442
10 3 0.175106 0.634366 0.357548
11 7 0.167924 0.546415 0.279215
20 4 0.169111 0.622476 0.272392
21 4 0.190073 0.513806 0.288891
22 4 0.135241 0.544688 0.303223
28 5 0.22385 0.5695 0.37045
29 7 0.225628 0.573004 0.422171
32 10 0.243214 0.542968 0.354707
33 4 0.188922 0.568483 0.435923
34 4 0.244619 0.606602 0.430376
1 1 0.264819 0.635902 0.247624
3 3 0.260398 0.670613 0.274788
30 1 0.258347 0.534583 0.445553
31 3 0.301181 0.542379 0.454541
59 11 0.247896 0.240186 0.508082
61 11 0.167975 0.229697 0.53612
37 1 0.251835 0.43746 0.517479
38 3 0.210347 0.449098 0.53115
49 8 0.209974 0.317404 0.615975
50 8 0.235963 0.263199 0.537829
51 8 0.175821 0.28273 0.597689
52 8 0.189644 0.255998 0.55601
54 4 0.246586 0.423415 0.611523
58 11 0.199195 0.33848 0.647543
60 11 0.140732 0.283677 0.61571
42 5 0.2844 0.414307 0.545916
43 6 0.281638 0.412003 0.597452
44 1 0.317389 0.448085 0.62077
45 3 0.31826 0.49074 0.608109
46 7 0.291506 0.358865 0.614611
47 8 0.255201 0.32596 0.594908
48 8 0.267797 0.300829 0.552488
53 10 0.316043 0.407774 0.529098
55 4 0.28933 0.356147 0.655052
56 4 0.328056 0.349613 0.599579
57 11 0.303568 0.307678 0.537308
62 5 0.347175 0.433683 0.656684
63 6 0.379863 0.462583 0.683698
64 1 0.422376 0.486853 0.658267
65 3 0.459083 0.465431 0.644184
66 7 0.404346 0.433978 0.72612
70 10 0.349027 0.399032 0.667758
71 4 0.358646 0.490259 0.702158
72 4 0.426875 0.402831 0.713087
73 4 0.37414 0.418469 0.748358
75 4 0.466492 0.479694 0.738915
79 5 0.419872 0.534103 0.65415
80 2 0.455576 0.564941 0.637892
81 10 0.39353 0.551906 0.671924
82 4 0.492266 0.549154 0.645116
83 4 0.45964 0.599542 0.658719
84 4 0.453248 0.578975 0.599877
67 7 0.436199 0.464245 0.761078
69 2 0.401783 0.481657 0.851338
74 4 0.453527 0.441833 0.790146
77 4 0.436026 0.469597 0.86949
78 4 0.379774 0.44771 0.848064
68 12 0.406915 0.514483 0.795786
76 4 0.378133 0.499972 0.878774
ITEM: TIMESTEP
50
ITEM: NUMBER OF ATOMS
84
ITEM: BOX BOUNDS pp pp pp
36.8402 64.2116
41.0137 68.3851
29.7681 57.1395
ITEM: ATOMS id type xs ys zs
23 11 0.196336 0.47766 0.213562
25 11 0.165281 0.463117 0.128863
12 8 0.149988 0.53853 0.22567
13 8 0.169387 0.501786 0.197795
14 8 0.11083 0.567891 0.208382
15 8 0.151818 0.492841 0.151046
16 8 0.0913953 0.557717 0.162511
17 8 0.114513 0.523086 0.134454
18 9 0.101222 0.515742 0.0867616
19 10 0.241637 0.567446 0.231549
24 11 0.0920096 0.594538 0.230576
26 11 0.0653802 0.582573 0.146315
27 10 0.0897447 0.54737 0.0768604
2 2 0.302649 0.634753 0.208733
4 4 0.325848 0.601447 0.208766
5 4 0.328021 0.665169 0.217605
6 4 0.289596 0.643173 0.171233
35 5 0.239671 0.489216 0.446107
39 10 0.204778 0.482479 0.438115
41 4 0.257575 0.417601 0.442873
36 7 0.265582 0.448516 0.466046
40 4 0.30471 0.452534 0.469163
7 5 0.235756 0.59542 0.254124
8 6 0.192744 0.592721 0.285862
9 1 0.199071 0.600038 0.339879
10 3 0.177409 0.635235 0.358432
11 7 0.166094 0.543478 0.276181
20 4 0.16769 0.621397 0.275526
21 4 0.191395 0.512618 0.283598
22 4 0.133302 0.540621 0.299931
28 5 0.225364 0.568281 0.367348
29 7 0.224871 0.571317 0.421281
32 10 0.238133 0.538886 0.350039
33 4 0.189514 0.561062 0.435479
34 4 0.237909 0.606538 0.433381
1 1 0.264715 0.635234 0.248417
3 3 0.261807 0.670691 0.276612
30 1 0.259418 0.533895 0.441886
31 3 0.300001 0.542769 0.456397
59 11 0.245725 0.242916 0.501516
61 11 0.168219 0.22968 0.54001
37 1 0.251678 0.438252 0.516246
38 3 0.213161 0.45314 0.53403
49 8 0.210629 0.317085 0.618653
50 8 0.235324 0.263012 0.53384
51 8 0.176677 0.285641 0.596981
52 8 0.190742 0.258047 0.55566
54 4 0.247515 0.419211 0.613477
58 11 0.200126 0.335348 0.652015
60 11 0.142865 0.276025 0.614901
42 5 0.284998 0.415603 0.54427
43 6 0.282784 0.413561 0.596713
44 1 0.319571 0.448134 0.618835
45 3 0.320802 0.491239 0.605615
46 7 0.29661 0.361736 0.614312
47 8 0.256449 0.327207 0.595537
48 8 0.267782 0.297938 0.552472
53 10 0.309889 0.396312 0.525964
55 4 0.294116 0.357692 0.654623
56 4 0.333397 0.351206 0.600771
57 11 0.302389 0.302191 0.534002
62 5 0.350059 0.429436 0.654172
63 6 0.378311 0.462018 0.686338
64 1 0.421294 0.487131 0.659669
65 3 0.45689 0.464713 0.640919
66 7 0.400344 0.434385 0.729605
70 10 0.347361 0.394064 0.662437
71 4 0.356118 0.490939 0.701434
72 4 0.423007 0.403565 0.71604
73 4 0.369992 0.416998 0.750196
75 4 0.46767 0.481413 0.74351
79 5 0.419236 0.536369 0.660037
80 2 0.455224 0.563168 0.633536
81 10 0.389073 0.55481 0.668806
82 4 0.493642 0.550115 0.634628
83 4 0.458593 0.601644 0.646016
84 4 0.445419 0.567806 0.594422
67 7 0.436078 0.465573 0.763475
69 2 0.400599 0.480927 0.852734
74 4 0.448739 0.436689 0.789027
77 4 0.437224 0.467632 0.864111
78 4 0.379672 0.446148 0.852797
68 12 0.405544 0.516304 0.795855
76 4 0.385113 0.499478 0.885347
ITEM: TIMESTEP
60
ITEM: NUMBER OF ATOMS
84
ITEM: BOX BOUNDS pp pp pp
36.8402 64.2116
41.0137 68.3851
29.7681 57.1395
ITEM: ATOMS id type xs ys zs
23 11 0.198287 0.477259 0.212411
25 11 0.164817 0.461425 0.128663
12 8 0.148348 0.535042 0.227525
13 8 0.16816 0.498605 0.198497
14 8 0.113545 0.567882 0.207825
15 8 0.148629 0.488819 0.151996
16 8 0.0968144 0.560225 0.157697
17 8 0.112417 0.519953 0.13148
18 9 0.100015 0.515935 0.0802967
19 10 0.246819 0.564526 0.238499
24 11 0.103613 0.599152 0.229744
26 11 0.0675798 0.581517 0.141921
27 10 0.076374 0.5411 0.0741363
2 2 0.299774 0.635012 0.210402
4 4 0.312811 0.598035 0.199901
5 4 0.329666 0.662467 0.210886
6 4 0.278127 0.650848 0.179935
35 5 0.239895 0.489057 0.442665
39 10 0.206177 0.482008 0.430825
41 4 0.258947 0.414344 0.445882
36 7 0.266007 0.448356 0.464597
40 4 0.30536 0.450822 0.466052
7 5 0.238075 0.594454 0.25733
8 6 0.192386 0.591098 0.284101
9 1 0.197791 0.599881 0.338562
10 3 0.180643 0.634861 0.363288
11 7 0.1638 0.541561 0.27972
20 4 0.169219 0.620486 0.27159
21 4 0.188518 0.510599 0.28855
22 4 0.130904 0.543092 0.303449
28 5 0.224128 0.567004 0.363588
29 7 0.225487 0.571333 0.416861
32 10 0.241418 0.540168 0.346048
33 4 0.189434 0.56333 0.430755
34 4 0.237829 0.607274 0.427483
1 1 0.266102 0.635121 0.25115
3 3 0.261784 0.671321 0.276906
30 1 0.259534 0.533721 0.440677
31 3 0.299081 0.544551 0.456762
59 11 0.246767 0.247404 0.498358
61 11 0.158331 0.236418 0.543864
37 1 0.2522 0.440997 0.517509
38 3 0.214512 0.457935 0.53798
49 8 0.214377 0.319699 0.615798
50 8 0.234474 0.265941 0.530948
51 8 0.180903 0.28678 0.598722
52 8 0.188716 0.258156 0.556557
54 4 0.250401 0.424299 0.611446
58 11 0.208103 0.34325 0.646828
60 11 0.14327 0.283941 0.610235
42 5 0.286303 0.415771 0.544386
43 6 0.284388 0.412361 0.595344
44 1 0.321825 0.447862 0.617959
45 3 0.32281 0.491369 0.606494
46 7 0.292845 0.357457 0.614106
47 8 0.258734 0.321668 0.594958
48 8 0.270574 0.295792 0.552869
53 10 0.319852 0.414391 0.530268
55 4 0.291465 0.353377 0.654467
56 4 0.330344 0.345001 0.604818
57 11 0.305735 0.299866 0.535434
62 5 0.352462 0.431177 0.653286
63 6 0.380774 0.461573 0.687491
64 1 0.41962 0.488745 0.661953
65 3 0.449829 0.464331 0.640478
66 7 0.398732 0.433998 0.734613
70 10 0.352243 0.39491 0.65666
71 4 0.357721 0.492206 0.696822
72 4 0.417321 0.399286 0.724763
73 4 0.36667 0.423347 0.75711
75 4 0.460958 0.480459 0.742792
79 5 0.419667 0.538251 0.660918
80 2 0.454969 0.564717 0.629969
81 10 0.397158 0.557129 0.682452
82 4 0.494052 0.553778 0.630594
83 4 0.454836 0.604663 0.637166
84 4 0.445729 0.559523 0.590788
67 7 0.432011 0.465586 0.767049
69 2 0.400602 0.482604 0.851705
74 4 0.449855 0.439274 0.792283
77 4 0.434432 0.466319 0.867127
78 4 0.375386 0.451104 0.847301
68 12 0.404317 0.515644 0.796907
76 4 0.385017 0.507221 0.879965
ITEM: TIMESTEP
70
ITEM: NUMBER OF ATOMS
84
ITEM: BOX BOUNDS pp pp pp
36.8402 64.2116
41.0137 68.3851
29.7681 57.1395
ITEM: ATOMS id type xs ys zs
23 11 0.186316 0.466761 0.215155
25 11 0.156731 0.454275 0.129784
12 8 0.146724 0.534224 0.226906
13 8 0.16185 0.493193 0.199042
14 8 0.114893 0.565801 0.203629
15 8 0.146459 0.486636 0.149886
16 8 0.10071 0.560774 0.15525
17 8 0.114851 0.521908 0.127425
18 9 0.0973246 0.514554 0.0783171
19 10 0.246816 0.562991 0.243689
24 11 0.101133 0.595902 0.22511
26 11 0.0803775 0.591207 0.14051
27 10 0.0773049 0.542014 0.0696412
2 2 0.296624 0.635019 0.210054
4 4 0.306196 0.596036 0.204036
5 4 0.330511 0.655082 0.219887
6 4 0.28474 0.653334 0.175836
35 5 0.241088 0.488526 0.440614
39 10 0.207741 0.480334 0.428464
41 4 0.248988 0.413007 0.453722
36 7 0.263283 0.447716 0.465881
40 4 0.302196 0.444915 0.459981
7 5 0.238221 0.593937 0.260871
8 6 0.191988 0.593432 0.286565
9 1 0.199499 0.598198 0.339985
10 3 0.180239 0.631962 0.362981
11 7 0.163751 0.544006 0.280022
20 4 0.169306 0.62398 0.276113
21 4 0.186829 0.512552 0.291228
22 4 0.128943 0.546335 0.300769
28 5 0.224962 0.564854 0.363782
29 7 0.228041 0.571 0.413771
32 10 0.234763 0.533308 0.348433
33 4 0.191536 0.57168 0.42873
34 4 0.24773 0.604621 0.420004
1 1 0.262996 0.635848 0.251794
3 3 0.259713 0.671539 0.278946
30 1 0.258619 0.533547 0.439258
31 3 0.296857 0.546178 0.455439
59 11 0.238284 0.242417 0.49937
61 11 0.16193 0.235973 0.541541
37 1 0.256432 0.444151 0.519221
38 3 0.218574 0.45975 0.53778
49 8 0.214678 0.319033 0.613828
50 8 0.233911 0.263612 0.532363
51 8 0.178062 0.287594 0.598525
52 8 0.188645 0.261473 0.555429
54 4 0.252284 0.420116 0.612955
58 11 0.209154 0.341341 0.645902
60 11 0.14394 0.276955 0.61524
42 5 0.28929 0.418699 0.545878
43 6 0.28694 0.410546 0.596699
44 1 0.322041 0.446407 0.621673
45 3 0.322748 0.489902 0.608948
46 7 0.299208 0.35852 0.615511
47 8 0.262112 0.322768 0.591719
48 8 0.271673 0.293044 0.550069
53 10 0.309626 0.396602 0.525265
55 4 0.295272 0.355215 0.655774
56 4 0.33761 0.346768 0.609621
57 11 0.305269 0.29253 0.529383
62 5 0.353974 0.43187 0.656934
63 6 0.374775 0.464516 0.690347
64 1 0.41983 0.489493 0.662489
65 3 0.448631 0.464338 0.637704
66 7 0.395693 0.435648 0.734547
70 10 0.359937 0.396413 0.662767
71 4 0.34694 0.490309 0.701154
72 4 0.413794 0.402856 0.718909
73 4 0.36611 0.422658 0.759116
75 4 0.465445 0.468101 0.745083
79 5 0.422733 0.538672 0.660548
80 2 0.452521 0.565814 0.630148
81 10 0.395567 0.557057 0.676383
82 4 0.491316 0.55852 0.639596
83 4 0.446055 0.60509 0.638096
84 4 0.451443 0.553336 0.591539
67 7 0.432451 0.462871 0.768139
69 2 0.396713 0.483368 0.856378
74 4 0.445837 0.438021 0.797308
77 4 0.433409 0.471622 0.869142
78 4 0.375769 0.449053 0.850772
68 12 0.402906 0.51686 0.797114
76 4 0.383625 0.506676 0.886923
ITEM: TIMESTEP
80
ITEM: NUMBER OF ATOMS
84
ITEM: BOX BOUNDS pp pp pp
36.8402 64.2116
41.0137 68.3851
29.7681 57.1395
ITEM: ATOMS id type xs ys zs
23 11 0.173552 0.459059 0.216281
25 11 0.150895 0.45038 0.131278
12 8 0.145454 0.534989 0.222987
13 8 0.155588 0.489395 0.198564
14 8 0.11576 0.57001 0.199907
15 8 0.143363 0.484599 0.149423
16 8 0.101949 0.5629 0.151949
17 8 0.117671 0.522406 0.126046
18 9 0.0977317 0.513654 0.0799278
19 10 0.24644 0.566955 0.240393
24 11 0.10244 0.600588 0.220988
26 11 0.0774556 0.590232 0.13746
27 10 0.0758506 0.540092 0.0726928
2 2 0.296545 0.635304 0.211413
4 4 0.305249 0.59861 0.196403
5 4 0.329869 0.655061 0.223525
6 4 0.278939 0.657905 0.182659
35 5 0.239614 0.487803 0.441516
39 10 0.206361 0.47989 0.42893
41 4 0.247596 0.412302 0.450279
36 7 0.26327 0.445912 0.463755
40 4 0.301561 0.445761 0.454236
7 5 0.235132 0.595864 0.25945
8 6 0.189618 0.592362 0.286422
9 1 0.197213 0.59568 0.340939
10 3 0.17835 0.63077 0.362816
11 7 0.161557 0.543342 0.274786
20 4 0.166506 0.622698 0.276301
21 4 0.184943 0.511854 0.285236
22 4 0.125698 0.541151 0.293678
28 5 0.22382 0.56206 0.36415
29 7 0.230301 0.572051 0.416754
32 10 0.243923 0.538257 0.34528
33 4 0.195785 0.570361 0.435798
34 4 0.248815 0.605929 0.424902
1 1 0.261973 0.635149 0.253738
3 3 0.25657 0.67212 0.27874
30 1 0.260352 0.533394 0.43897
31 3 0.298688 0.544476 0.457121
59 11 0.238955 0.234592 0.502571
61 11 0.160006 0.235845 0.537164
37 1 0.257709 0.441871 0.520014
38 3 0.222885 0.464699 0.540157
49 8 0.217955 0.319302 0.615277
50 8 0.234194 0.260004 0.532377
51 8 0.181934 0.291061 0.595245
52 8 0.188085 0.258666 0.5529
54 4 0.256404 0.419668 0.616933
58 11 0.209125 0.339995 0.647691
60 11 0.146722 0.293649 0.61286
42 5 0.291994 0.416726 0.547059
43 6 0.290177 0.409792 0.599078
44 1 0.322635 0.446355 0.624747
45 3 0.321393 0.489985 0.612037
46 7 0.30182 0.355931 0.610766
47 8 0.262123 0.324465 0.591386
48 8 0.269317 0.294134 0.551105
53 10 0.322364 0.409826 0.528168
55 4 0.307224 0.347392 0.650078
56 4 0.336786 0.34458 0.593558
57 11 0.305253 0.294021 0.534811
62 5 0.349824 0.43204 0.662294
63 6 0.379747 0.466156 0.689007
64 1 0.41802 0.489785 0.661173
65 3 0.448172 0.464944 0.638989
66 7 0.395309 0.437423 0.733366
70 10 0.348111 0.397154 0.672628
71 4 0.358654 0.495148 0.705481
72 4 0.416067 0.404878 0.720818
73 4 0.360361 0.424584 0.74953
75 4 0.463326 0.475378 0.754908
79 5 0.418831 0.539137 0.662256
80 2 0.454072 0.567045 0.63197
81 10 0.393272 0.555294 0.682565
82 4 0.492135 0.566035 0.646032
83 4 0.443173 0.606133 0.631021
84 4 0.458035 0.55035 0.595185
67 7 0.427668 0.463819 0.770478
69 2 0.393721 0.486827 0.857037
74 4 0.441441 0.437206 0.797857
77 4 0.429642 0.480517 0.874853
78 4 0.372552 0.452909 0.850037
68 12 0.402921 0.515239 0.799133
76 4 0.376032 0.514857 0.880467
ITEM: TIMESTEP
90
ITEM: NUMBER OF ATOMS
84
ITEM: BOX BOUNDS pp pp pp
36.8402 64.2116
41.0137 68.3851
29.7681 57.1395
ITEM: ATOMS id type xs ys zs
23 11 0.171395 0.463756 0.218402
25 11 0.148258 0.449975 0.133285
12 8 0.144017 0.536507 0.221819
13 8 0.152014 0.491992 0.198805
14 8 0.119514 0.574136 0.196118
15 8 0.138173 0.4841 0.150334
16 8 0.102728 0.566106 0.146927
17 8 0.113452 0.520275 0.125695
18 9 0.0992322 0.512488 0.0774699
19 10 0.241897 0.566994 0.235158
24 11 0.116952 0.60946 0.213511
26 11 0.0814861 0.592806 0.127107
27 10 0.0709977 0.532554 0.0719663
2 2 0.297472 0.638386 0.213596
4 4 0.301358 0.600231 0.200305
5 4 0.332619 0.651264 0.229292
6 4 0.282262 0.658918 0.182059
35 5 0.241232 0.487803 0.444584
39 10 0.208245 0.483509 0.429744
41 4 0.246361 0.41238 0.452892
36 7 0.264307 0.444867 0.466287
40 4 0.303127 0.444829 0.459224
7 5 0.230946 0.595224 0.255403
8 6 0.186392 0.588485 0.283509
9 1 0.1933 0.595328 0.340008
10 3 0.175387 0.629497 0.363682
11 7 0.159413 0.539972 0.273893
20 4 0.16322 0.617722 0.270657
21 4 0.184423 0.509104 0.282211
22 4 0.125689 0.533776 0.295615
28 5 0.222249 0.565081 0.365427
29 7 0.229909 0.570836 0.418235
32 10 0.235748 0.535134 0.349689
33 4 0.195402 0.572417 0.437304
34 4 0.250528 0.60402 0.423756
1 1 0.257376 0.636872 0.25077
3 3 0.255931 0.672452 0.278142
30 1 0.26225 0.532569 0.444219
31 3 0.3037 0.538807 0.460037
59 11 0.240695 0.23583 0.502903
61 11 0.161821 0.23746 0.543311
37 1 0.260507 0.444453 0.519778
38 3 0.227396 0.465883 0.542887
49 8 0.215926 0.32061 0.612738
50 8 0.237498 0.260919 0.533188
51 8 0.178102 0.292224 0.59531
52 8 0.190397 0.261481 0.556092
54 4 0.251991 0.41318 0.61019
58 11 0.208712 0.341691 0.645303
60 11 0.14282 0.291367 0.612955
42 5 0.29265 0.418658 0.545262
43 6 0.288625 0.408959 0.596153
44 1 0.319299 0.446929 0.625515
45 3 0.321021 0.490638 0.613363
46 7 0.305144 0.353213 0.606133
47 8 0.26484 0.319161 0.589515
48 8 0.273195 0.291804 0.548259
53 10 0.317909 0.401213 0.525655
55 4 0.311068 0.346865 0.645783
56 4 0.34018 0.344566 0.587553
57 11 0.307599 0.294548 0.529135
62 5 0.344552 0.433435 0.664372
63 6 0.37674 0.467311 0.691661
64 1 0.419304 0.49009 0.662754
65 3 0.450953 0.466827 0.638717
66 7 0.398082 0.434447 0.73673
70 10 0.339303 0.400319 0.678604
71 4 0.356497 0.49811 0.705752
72 4 0.418768 0.403005 0.72153
73 4 0.366143 0.420539 0.757562
75 4 0.465996 0.474343 0.756849
79 5 0.418546 0.540399 0.659998
80 2 0.455287 0.567836 0.635938
81 10 0.391434 0.5588 0.675908
82 4 0.488386 0.571622 0.659125
83 4 0.437785 0.603745 0.628744
84 4 0.46275 0.55005 0.600224
67 7 0.430244 0.462143 0.771697
69 2 0.389215 0.48957 0.861929
74 4 0.442394 0.434253 0.798568
77 4 0.424453 0.484558 0.881439
78 4 0.368333 0.45555 0.854571
68 12 0.401639 0.516888 0.800392
76 4 0.366451 0.515852 0.882873
ITEM: TIMESTEP
100
ITEM: NUMBER OF ATOMS
84
ITEM: BOX BOUNDS pp pp pp
36.8402 64.2116
41.0137 68.3851
29.7681 57.1395
ITEM: ATOMS id type xs ys zs
23 11 0.166154 0.464664 0.22066
25 11 0.135794 0.448402 0.134116
12 8 0.142395 0.537385 0.220685
13 8 0.150627 0.493022 0.19804
14 8 0.121843 0.575458 0.192657
15 8 0.132371 0.484363 0.14999
16 8 0.105546 0.566878 0.144812
17 8 0.109651 0.520362 0.123445
18 9 0.0972596 0.510923 0.0729784
19 10 0.231443 0.570301 0.228955
24 11 0.111012 0.6093 0.209812
26 11 0.093546 0.59668 0.121904
27 10 0.0843028 0.540182 0.058621
2 2 0.296984 0.638212 0.212951
4 4 0.306791 0.602398 0.196558
5 4 0.328789 0.64787 0.236248
6 4 0.287834 0.6651 0.183954
35 5 0.241657 0.487401 0.447612
39 10 0.206532 0.487028 0.437974
41 4 0.243117 0.417047 0.454778
36 7 0.26576 0.446125 0.468872
40 4 0.304038 0.444696 0.459404
7 5 0.225829 0.598072 0.251846
8 6 0.185178 0.590534 0.286787
9 1 0.193627 0.5958 0.341524
10 3 0.170777 0.630111 0.359696
11 7 0.159495 0.540748 0.274788
20 4 0.158856 0.618859 0.278933
21 4 0.183938 0.509309 0.282643
22 4 0.128576 0.535781 0.300612
28 5 0.222069 0.563966 0.368346
29 7 0.233378 0.571004 0.41878
32 10 0.242759 0.538195 0.353031
33 4 0.199325 0.569006 0.438611
34 4 0.251938 0.605406 0.424151
1 1 0.256908 0.635705 0.249528
3 3 0.252047 0.670677 0.277509
30 1 0.264094 0.530751 0.442677
31 3 0.303419 0.537376 0.461315
59 11 0.241556 0.236534 0.50046
61 11 0.157813 0.237507 0.545277
37 1 0.262405 0.446458 0.521486
38 3 0.228426 0.468934 0.544215
49 8 0.221562 0.323666 0.610423
50 8 0.235437 0.260203 0.531432
51 8 0.183654 0.291057 0.592817
52 8 0.189209 0.25944 0.55477
54 4 0.252866 0.409371 0.606145
58 11 0.214869 0.350828 0.638249
60 11 0.148235 0.29143 0.610203
42 5 0.29392 0.416118 0.544229
43 6 0.290649 0.408592 0.594801