# Structure data generated using scikit-nano version 0.2.26

40      atoms
1       atom types

-16.780001 16.780001    xlo xhi
-16.780001 16.780001    ylo yhi
-10.614878 10.614878    zlo zhi

Masses

1       12.0107

Atoms

  1  0 1 0.0      6.448164      2.095135      0.614878  0  0  0
  2  0 1 0.0      5.871653      3.390000      0.614878  0  0  0
  3  0 1 0.0      5.485136      3.985184     -0.614878  0  0  0
  4  0 1 0.0      4.536706      5.038522     -0.614878  0  0  0
  5  0 1 0.0      3.985184      5.485136      0.614878  0  0  0
  6  0 1 0.0      2.757675      6.193839      0.614878  0  0  0
  7  0 1 0.0      2.095135      6.448164     -0.614878  0  0  0
  8  0 1 0.0      0.708703      6.742859     -0.614878  0  0  0
  9  0 1 0.0      0.000000      6.780001      0.614878  0  0  0
 10  0 1 0.0     -1.409641      6.631841      0.614878  0  0  0
 11  0 1 0.0     -2.095135      6.448164     -0.614878  0  0  0
 12  0 1 0.0     -3.390000      5.871653     -0.614878  0  0  0
 13  0 1 0.0     -3.985184      5.485136      0.614878  0  0  0
 14  0 1 0.0     -5.038522      4.536706      0.614878  0  0  0
 15  0 1 0.0     -5.485136      3.985184     -0.614878  0  0  0
 16  0 1 0.0     -6.193839      2.757675     -0.614878  0  0  0
 17  0 1 0.0     -6.448164      2.095135      0.614878  0  0  0
 18  0 1 0.0     -6.742859      0.708703      0.614878  0  0  0
 19  0 1 0.0     -6.780001      0.000000     -0.614878  0  0  0
 20  0 1 0.0     -6.631841     -1.409641     -0.614878  0  0  0
 21  0 1 0.0     -6.448164     -2.095135      0.614878  0  0  0
 22  0 1 0.0     -5.871653     -3.390000      0.614878  0  0  0
 23  0 1 0.0     -5.485136     -3.985184     -0.614878  0  0  0
 24  0 1 0.0     -4.536706     -5.038522     -0.614878  0  0  0
 25  0 1 0.0     -3.985184     -5.485136      0.614878  0  0  0
 26  0 1 0.0     -2.757675     -6.193839      0.614878  0  0  0
 27  0 1 0.0     -2.095135     -6.448164     -0.614878  0  0  0
 28  0 1 0.0     -0.708703     -6.742859     -0.614878  0  0  0
 29  0 1 0.0      0.000000     -6.780001      0.614878  0  0  0
 30  0 1 0.0      1.409641     -6.631841      0.614878  0  0  0
 31  0 1 0.0      2.095135     -6.448164     -0.614878  0  0  0
 32  0 1 0.0      3.390000     -5.871653     -0.614878  0  0  0
 33  0 1 0.0      3.985184     -5.485136      0.614878  0  0  0
 34  0 1 0.0      5.038522     -4.536706      0.614878  0  0  0
 35  0 1 0.0      5.485136     -3.985184     -0.614878  0  0  0
 36  0 1 0.0      6.193839     -2.757675     -0.614878  0  0  0
 37  0 1 0.0      6.448164     -2.095135      0.614878  0  0  0
 38  0 1 0.0      6.742859     -0.708703      0.614878  0  0  0
 39  0 1 0.0      6.780001      0.000000     -0.614878  0  0  0
 40  0 1 0.0      6.631841      1.409641     -0.614878  0  0  0

Velocities

  1      0.000000      0.000000      0.000000
  2      0.000000      0.000000      0.000000
  3      0.000000      0.000000      0.000000
  4      0.000000      0.000000      0.000000
  5      0.000000      0.000000      0.000000
  6      0.000000      0.000000      0.000000
  7      0.000000      0.000000      0.000000
  8      0.000000      0.000000      0.000000
  9      0.000000      0.000000      0.000000
 10      0.000000      0.000000      0.000000
 11      0.000000      0.000000      0.000000
 12      0.000000      0.000000      0.000000
 13      0.000000      0.000000      0.000000
 14      0.000000      0.000000      0.000000
 15      0.000000      0.000000      0.000000
 16      0.000000      0.000000      0.000000
 17      0.000000      0.000000      0.000000
 18      0.000000      0.000000      0.000000
 19      0.000000      0.000000      0.000000
 20      0.000000      0.000000      0.000000
 21      0.000000      0.000000      0.000000
 22      0.000000      0.000000      0.000000
 23      0.000000      0.000000      0.000000
 24      0.000000      0.000000      0.000000
 25      0.000000      0.000000      0.000000
 26      0.000000      0.000000      0.000000
 27      0.000000      0.000000      0.000000
 28      0.000000      0.000000      0.000000
 29      0.000000      0.000000      0.000000
 30      0.000000      0.000000      0.000000
 31      0.000000      0.000000      0.000000
 32      0.000000      0.000000      0.000000
 33      0.000000      0.000000      0.000000
 34      0.000000      0.000000      0.000000
 35      0.000000      0.000000      0.000000
 36      0.000000      0.000000      0.000000
 37      0.000000      0.000000      0.000000
 38      0.000000      0.000000      0.000000
 39      0.000000      0.000000      0.000000
 40      0.000000      0.000000      0.000000
