ITEM: TIMESTEP
2975
ITEM: NUMBER OF ATOMS
565
ITEM: BOX BOUNDS mm mm ff
-21.9829 21.9829
-21.8858 21.8858
-79.9287 79.9287
ITEM: ATOMS id type x y z vx vy vz fx fy fz c_peratom_pe c_peratom_ke v_speed 
4 1 -1.806480 -2.486407 -60.348130 0.000000 0.000000 0.000000 0.000000 0.000000 0.000000 -3.771712 0.000000 0.000000 
3 1 -1.289772 -1.775219 -59.323785 0.000000 0.000000 0.000000 0.000000 0.000000 0.000000 -8.778066 0.000000 0.000000 
6 1 1.806480 -2.486406 -60.348130 0.000000 0.000000 0.000000 0.000000 0.000000 0.000000 -3.771712 0.000000 0.000000 
5 1 1.289772 -1.775219 -59.323785 0.000000 0.000000 0.000000 0.000000 0.000000 0.000000 -8.778067 0.000000 0.000000 
2 1 -2.922947 0.949723 -60.348130 0.000000 0.000000 0.000000 0.000000 0.000000 0.000000 -3.771712 0.000000 0.000000 
1 1 -2.086895 0.678073 -59.323785 0.000000 0.000000 0.000000 0.000000 0.000000 0.000000 -8.778066 0.000000 0.000000 
8 1 2.922946 0.949723 -60.348130 0.000000 0.000000 0.000000 0.000000 0.000000 0.000000 -3.771712 0.000000 0.000000 
7 1 2.086895 0.678073 -59.323785 0.000000 0.000000 0.000000 0.000000 0.000000 0.000000 -8.778066 0.000000 0.000000 
10 1 0.000000 3.073368 -60.348130 0.000000 0.000000 0.000000 0.000000 0.000000 0.000000 -3.771711 0.000000 0.000000 
9 1 0.000000 2.194291 -59.323785 0.000000 0.000000 0.000000 0.000000 0.000000 0.000000 -8.778066 0.000000 0.000000 
20 1 0.000000 -2.022121 -58.671969 0.000000 0.000000 0.000000 0.000000 0.000000 0.000000 -7.541726 0.000000 0.000000 
19 1 0.000000 -2.046786 -57.216944 0.000000 0.000000 0.000000 0.000000 0.000000 0.000000 -7.220684 0.000000 0.000000 
16 1 -1.923151 -0.624870 -58.671969 0.000000 0.000000 0.000000 0.000000 0.000000 0.000000 -7.541727 0.000000 0.000000 
15 1 -1.946609 -0.632492 -57.216944 0.000000 0.000000 0.000000 0.000000 0.000000 0.000000 -7.220684 0.000000 0.000000 
24 1 1.923151 -0.624870 -58.671969 0.000000 0.000000 0.000000 0.000000 0.000000 0.000000 -7.541726 0.000000 0.000000 
23 1 1.946609 -0.632491 -57.216944 0.000000 0.000000 0.000000 0.000000 0.000000 0.000000 -7.220684 0.000000 0.000000 
12 1 -1.188573 1.635930 -58.671969 0.000000 0.000000 0.000000 0.000000 0.000000 0.000000 -7.541726 0.000000 0.000000 
11 1 -1.203071 1.655884 -57.216944 0.000000 0.000000 0.000000 0.000000 0.000000 0.000000 -7.220683 0.000000 0.000000 
28 1 1.188573 1.635930 -58.671969 0.000000 0.000000 0.000000 0.000000 0.000000 0.000000 -7.541726 0.000000 0.000000 
27 1 1.203070 1.655885 -57.216944 0.000000 0.000000 0.000000 0.000000 0.000000 0.000000 -7.220684 0.000000 0.000000 
18 1 -1.216602 -1.674509 -56.482872 0.000000 0.000000 0.000000 0.000000 0.000000 0.000000 -7.325051 0.000000 0.000000 
17 1 -1.220559 -1.679956 -55.039487 0.000040 0.000056 0.000333 0.000006 0.000008 0.000047 -7.358745 0.000000 0.000340 
22 1 1.216602 -1.674509 -56.482872 0.000000 0.000000 0.000000 0.000000 0.000000 0.000000 -7.325050 0.000000 0.000000 
21 1 1.220560 -1.679956 -55.039487 -0.000041 0.000056 0.000333 -0.000006 0.000008 0.000047 -7.358745 0.000000 0.000340 
14 1 -1.968504 0.639605 -56.482872 0.000000 0.000000 0.000000 0.000000 0.000000 0.000000 -7.325050 0.000000 0.000000 
13 1 -1.974907 0.641686 -55.039487 0.000065 -0.000021 0.000333 0.000010 -0.000003 0.000047 -7.358745 0.000000 0.000340 
26 1 1.968504 0.639606 -56.482872 0.000000 0.000000 0.000000 0.000000 0.000000 0.000000 -7.325050 0.000000 0.000000 
25 1 1.974907 0.641686 -55.039487 -0.000066 -0.000021 0.000333 -0.000010 -0.000003 0.000047 -7.358745 0.000000 0.000340 
30 1 0.000000 2.069807 -56.482872 0.000000 0.000000 0.000000 0.000000 0.000000 0.000000 -7.325051 0.000000 0.000000 
29 1 -0.000000 2.076540 -55.039487 -0.000000 -0.000069 0.000333 0.000000 -0.000010 0.000047 -7.358745 0.000000 0.000340 
40 1 0.000000 -2.076727 -54.311640 -0.000000 0.000134 0.000858 0.000000 0.000019 0.000121 -7.344508 0.000000 0.000869 
36 1 -1.975085 -0.641744 -54.311640 0.000127 0.000041 0.000859 0.000018 0.000006 0.000121 -7.344507 0.000000 0.000869 
44 1 1.975084 -0.641744 -54.311640 -0.000127 0.000041 0.000858 -0.000018 0.000006 0.000121 -7.344508 0.000000 0.000869 
32 1 -1.220670 1.680107 -54.311640 0.000079 -0.000108 0.000858 0.000011 -0.000015 0.000121 -7.344508 0.000000 0.000869 
48 1 1.220669 1.680107 -54.311640 -0.000079 -0.000108 0.000859 -0.000011 -0.000015 0.000121 -7.344507 0.000000 0.000869 
38 1 -1.220185 -1.679441 -52.139529 0.000099 0.000137 0.001693 0.000013 0.000018 0.000232 -7.347576 0.000000 0.001702 
39 1 0.000000 -2.076071 -52.866748 0.000000 0.000161 0.001128 -0.000000 0.000023 0.000158 -7.347890 0.000000 0.001139 
42 1 1.220185 -1.679441 -52.139530 -0.000100 0.000138 0.001693 -0.000013 0.000018 0.000232 -7.347577 0.000000 0.001701 
35 1 -1.974461 -0.641542 -52.866748 0.000154 0.000050 0.001128 0.000022 0.000007 0.000158 -7.347890 0.000000 0.001139 
34 1 -1.974301 0.641489 -52.139529 0.000161 -0.000053 0.001692 0.000021 -0.000007 0.000232 -7.347576 0.000000 0.001701 
43 1 1.974461 -0.641541 -52.866748 -0.000154 0.000050 0.001128 -0.000022 0.000007 0.000158 -7.347890 0.000000 0.001139 
46 1 1.974301 0.641489 -52.139529 -0.000161 -0.000052 0.001692 -0.000021 -0.000007 0.000232 -7.347576 0.000000 0.001701 
31 1 -1.220284 1.679577 -52.866748 0.000095 -0.000130 0.001127 0.000013 -0.000018 0.000158 -7.347890 0.000000 0.001139 
50 1 -0.000000 2.075903 -52.139530 0.000000 -0.000170 0.001693 0.000000 -0.000023 0.000232 -7.347577 0.000000 0.001701 
47 1 1.220284 1.679577 -52.866748 -0.000095 -0.000130 0.001128 -0.000013 -0.000018 0.000158 -7.347890 0.000000 0.001139 
37 1 -1.220186 -1.679442 -50.694596 0.000102 0.000140 0.001948 0.000013 0.000018 0.000264 -7.347130 0.000000 0.001955 
60 1 0.000000 -2.075914 -49.967292 0.000000 0.000173 0.002491 -0.000000 0.000021 0.000332 -7.347273 0.000000 0.002497 
41 1 1.220186 -1.679442 -50.694596 -0.000101 0.000140 0.001947 -0.000013 0.000018 0.000264 -7.347130 0.000000 0.001954 
33 1 -1.974303 0.641490 -50.694596 0.000165 -0.000055 0.001948 0.000021 -0.000007 0.000264 -7.347130 0.000000 0.001956 
56 1 -1.974312 -0.641493 -49.967292 0.000167 0.000052 0.002489 0.000021 0.000007 0.000330 -7.347273 0.000000 0.002495 
45 1 1.974302 0.641490 -50.694596 -0.000164 -0.000054 0.001948 -0.000021 -0.000007 0.000264 -7.347130 0.000000 0.001956 
64 1 1.974312 -0.641492 -49.967292 -0.000165 0.000053 0.002491 -0.000020 0.000007 0.000331 -7.347273 0.000000 0.002497 
52 1 -1.220192 1.679450 -49.967292 0.000104 -0.000141 0.002488 0.000013 -0.000018 0.000331 -7.347273 0.000000 0.002494 
49 1 -0.000000 2.075904 -50.694596 0.000001 -0.000174 0.001947 0.000000 -0.000022 0.000263 -7.347130 0.000000 0.001954 
68 1 1.220191 1.679450 -49.967292 -0.000103 -0.000141 0.002489 -0.000013 -0.000017 0.000331 -7.347273 0.000000 0.002495 
58 1 -1.220190 -1.679448 -47.795034 0.000088 0.000115 0.003179 0.000008 0.000007 0.000399 -7.347281 0.000000 0.003182 
59 1 0.000000 -2.075916 -48.522359 -0.000003 0.000179 0.002725 -0.000001 0.000020 0.000358 -7.347229 0.000000 0.002731 
62 1 1.220191 -1.679448 -47.795034 -0.000083 0.000112 0.003173 -0.000007 0.000007 0.000402 -7.347281 0.000000 0.003176 
55 1 -1.974314 -0.641494 -48.522359 0.000170 0.000055 0.002721 0.000019 0.000007 0.000359 -7.347229 0.000000 0.002727 
54 1 -1.974310 0.641492 -47.795034 0.000131 -0.000043 0.003187 0.000010 -0.000003 0.000401 -7.347281 0.000000 0.003190 
63 1 1.974314 -0.641493 -48.522359 -0.000170 0.000056 0.002722 -0.000019 0.000007 0.000358 -7.347229 0.000000 0.002728 
66 1 1.974309 0.641492 -47.795034 -0.000134 -0.000049 0.003178 -0.000010 -0.000004 0.000400 -7.347281 0.000000 0.003181 
51 1 -1.220193 1.679451 -48.522359 0.000103 -0.000144 0.002723 0.000011 -0.000017 0.000359 -7.347229 0.000000 0.002729 
70 1 -0.000000 2.075912 -47.795034 0.000001 -0.000139 0.003180 0.000001 -0.000010 0.000400 -7.347281 0.000000 0.003183 
67 1 1.220193 1.679452 -48.522359 -0.000107 -0.000143 0.002724 -0.000012 -0.000016 0.000359 -7.347229 0.000000 0.002730 
57 1 -1.220188 -1.679446 -46.350088 0.000053 0.000046 0.003286 0.000005 -0.000001 0.000407 -7.347222 0.000000 0.003287 
80 1 0.000000 -2.075906 -45.622737 -0.000011 0.000143 0.003533 0.000001 0.000034 0.000447 -7.347272 0.000000 0.003536 
61 1 1.220189 -1.679446 -46.350088 -0.000043 0.000046 0.003308 -0.000003 0.000002 0.000413 -7.347221 0.000000 0.003309 
53 1 -1.974307 0.641491 -46.350088 0.000072 -0.000023 0.003289 0.000005 -0.000001 0.000405 -7.347222 0.000000 0.003290 
76 1 -1.974303 -0.641490 -45.622737 0.000125 0.000042 0.003511 0.000024 0.000011 0.000473 -7.347272 0.000000 0.003514 
65 1 1.974307 0.641491 -46.350088 -0.000064 -0.000029 0.003284 -0.000003 0.000001 0.000406 -7.347221 0.000000 0.003284 
84 1 1.974304 -0.641490 -45.622737 -0.000120 0.000064 0.003527 -0.000028 0.000011 0.000457 -7.347272 0.000000 0.003530 
72 1 -1.220187 1.679443 -45.622737 0.000079 -0.000134 0.003521 0.000017 -0.000027 0.000465 -7.347272 0.000000 0.003525 
69 1 -0.000000 2.075909 -46.350088 0.000010 -0.000075 0.003295 0.000001 -0.000005 0.000409 -7.347222 0.000000 0.003296 
88 1 1.220187 1.679443 -45.622737 -0.000073 -0.000106 0.003528 -0.000016 -0.000024 0.000463 -7.347272 0.000000 0.003530 
78 1 -1.220183 -1.679439 -43.450410 0.000131 0.000211 0.003860 -0.000031 -0.000018 -0.000123 -7.347247 0.000000 0.003868 
79 1 0.000000 -2.075902 -44.177776 -0.000003 0.000489 0.003768 0.000002 -0.000002 -0.000008 -7.347235 0.000000 0.003800 
82 1 1.220183 -1.679438 -43.450410 -0.000148 0.000213 0.003935 0.000037 -0.000015 -0.000127 -7.347246 0.000000 0.003943 
75 1 -1.974300 -0.641490 -44.177776 0.000423 0.000164 0.003929 0.000004 0.000011 -0.000017 -7.347233 0.000000 0.003955 
74 1 -1.974298 0.641488 -43.450409 0.000279 -0.000098 0.003817 -0.000037 -0.000008 -0.000155 -7.347248 0.000000 0.003828 
83 1 1.974301 -0.641489 -44.177776 -0.000466 0.000136 0.003842 -0.000017 -0.000027 -0.000008 -7.347234 0.000000 0.003872 
86 1 1.974298 0.641488 -43.450410 -0.000257 -0.000011 0.003846 0.000038 0.000028 -0.000122 -7.347247 0.000000 0.003854 
71 1 -1.220185 1.679440 -44.177776 0.000295 -0.000390 0.003888 0.000014 0.000007 -0.000014 -7.347234 0.000000 0.003919 
90 1 0.000000 2.075899 -43.450410 -0.000037 -0.000278 0.003905 -0.000012 0.000035 -0.000135 -7.347247 0.000000 0.003915 
87 1 1.220185 1.679440 -44.177776 -0.000242 -0.000405 0.003867 -0.000008 -0.000002 -0.000015 -7.347234 0.000000 0.003896 
77 1 -1.220183 -1.679439 -42.005453 -0.000377 -0.000283 0.003932 -0.000038 -0.000020 -0.000041 -7.347259 0.000000 0.003960 
100 1 0.000000 -2.075904 -41.278093 0.000086 -0.000455 0.004180 0.000023 0.000026 0.000057 -7.347246 0.000000 0.004205 
81 1 1.220183 -1.679438 -42.005453 0.000272 -0.000311 0.003893 0.000028 -0.000022 -0.000052 -7.347259 0.000000 0.003915 
73 1 -1.974298 0.641488 -42.005454 -0.000431 0.000123 0.003901 -0.000029 0.000013 -0.000009 -7.347260 0.000000 0.003927 
96 1 -1.974302 -0.641490 -41.278092 -0.000393 -0.000205 0.004201 0.000035 -0.000002 0.000010 -7.347245 0.000000 0.004225 
85 1 1.974299 0.641489 -42.005453 0.000417 0.000200 0.003899 0.000029 0.000002 -0.000047 -7.347260 0.000000 0.003926 
104 1 1.974303 -0.641489 -41.278093 0.000376 -0.000221 0.004170 -0.000029 -0.000006 0.000041 -7.347245 0.000000 0.004193 
92 1 -1.220186 1.679441 -41.278092 -0.000228 0.000394 0.004156 0.000014 -0.000022 0.000028 -7.347245 0.000000 0.004181 
89 1 -0.000000 2.075900 -42.005453 -0.000000 0.000427 0.003926 0.000012 0.000028 -0.000035 -7.347259 0.000000 0.003949 
108 1 1.220186 1.679442 -41.278092 0.000284 0.000346 0.004154 -0.000024 -0.000012 0.000030 -7.347245 0.000000 0.004178 
98 1 -1.220186 -1.679443 -39.105780 0.000335 0.000558 0.003855 0.000045 -0.000011 -0.000210 -7.347246 0.000000 0.003909 
99 1 0.000001 -2.075907 -39.833135 0.000050 0.000234 0.003964 -0.000034 0.000052 -0.000214 -7.347257 0.000000 0.003971 
102 1 1.220187 -1.679443 -39.105779 -0.000370 0.000516 0.003747 -0.000008 0.000003 -0.000226 -7.347247 0.000000 0.003800 
95 1 -1.974304 -0.641491 -39.833135 0.000267 0.000053 0.003929 0.000036 0.000038 -0.000200 -7.347260 0.000000 0.003938 
94 1 -1.974303 0.641489 -39.105779 0.000575 -0.000171 0.003935 0.000017 0.000005 -0.000207 -7.347245 0.000000 0.003980 
103 1 1.974305 -0.641491 -39.833135 -0.000238 0.000060 0.003989 -0.000048 0.000032 -0.000209 -7.347258 0.000000 0.003997 
106 1 1.974303 0.641490 -39.105779 -0.000620 -0.000189 0.003831 -0.000009 -0.000001 -0.000225 -7.347246 0.000000 0.003885 
91 1 -1.220187 1.679443 -39.833135 0.000118 -0.000200 0.003942 0.000026 -0.000053 -0.000203 -7.347258 0.000000 0.003949 
110 1 0.000000 2.075905 -39.105779 0.000025 -0.000638 0.003855 -0.000010 -0.000008 -0.000215 -7.347246 0.000000 0.003908 
107 1 1.220187 1.679443 -39.833135 -0.000171 -0.000215 0.003963 -0.000019 -0.000052 -0.000205 -7.347259 0.000000 0.003973 
97 1 -1.220184 -1.679441 -37.660830 0.000316 0.000317 0.004323 -0.000035 -0.000029 0.000025 -7.347260 0.000000 0.004346 
120 1 0.000001 -2.075905 -36.933480 -0.000055 0.000023 0.004850 0.000005 -0.000044 -0.000109 -7.347239 0.000000 0.004850 
101 1 1.220185 -1.679441 -37.660831 -0.000250 0.000340 0.004374 0.000025 -0.000021 0.000053 -7.347259 0.000000 0.004395 
93 1 -1.974300 0.641489 -37.660830 0.000485 -0.000130 0.004302 -0.000047 0.000001 0.000007 -7.347260 0.000000 0.004331 
116 1 -1.974302 -0.641490 -36.933481 -0.000055 0.000016 0.004814 -0.000037 -0.000013 -0.000060 -7.347238 0.000000 0.004814 
105 1 1.974301 0.641489 -37.660831 -0.000421 -0.000175 0.004361 0.000032 -0.000003 0.000038 -7.347259 0.000000 0.004384 
124 1 1.974302 -0.641490 -36.933480 -0.000003 0.000038 0.004864 0.000045 0.000001 -0.000102 -7.347238 0.000000 0.004864 
112 1 -1.220186 1.679441 -36.933480 -0.000012 0.000003 0.004884 -0.000014 0.000038 -0.000080 -7.347239 0.000000 0.004884 
109 1 0.000000 2.075902 -37.660831 0.000019 -0.000438 0.004325 -0.000004 0.000040 0.000040 -7.347260 0.000000 0.004347 
128 1 1.220186 1.679442 -36.933480 -0.000025 0.000003 0.004892 0.000027 0.000032 -0.000085 -7.347238 0.000000 0.004892 
118 1 -1.220190 -1.679449 -34.761193 -0.000120 -0.000161 0.004005 0.000040 0.000035 -0.000106 -7.347246 0.000000 0.004010 
119 1 0.000001 -2.075910 -35.488531 0.000011 -0.000593 0.004050 -0.000007 0.000025 -0.000224 -7.347266 0.000000 0.004093 
122 1 1.220191 -1.679449 -34.761193 0.000125 -0.000151 0.004099 -0.000027 0.000053 -0.000076 -7.347245 0.000000 0.004104 
115 1 -1.974307 -0.641492 -35.488531 -0.000513 -0.000186 0.004188 0.000017 0.000020 -0.000263 -7.347265 0.000000 0.004223 
114 1 -1.974309 0.641492 -34.761193 -0.000182 0.000073 0.003931 0.000047 -0.000025 -0.000107 -7.347247 0.000000 0.003936 
123 1 1.974308 -0.641491 -35.488531 0.000549 -0.000182 0.004043 -0.000030 -0.000018 -0.000239 -7.347266 0.000000 0.004084 
126 1 1.974310 0.641492 -34.761193 0.000192 0.000076 0.003976 -0.000046 -0.000013 -0.000073 -7.347247 0.000000 0.003981 
111 1 -1.220189 1.679445 -35.488530 -0.000356 0.000427 0.004129 0.000013 -0.000012 -0.000261 -7.347266 0.000000 0.004166 
130 1 0.000000 2.075912 -34.761193 0.000028 0.000161 0.004027 -0.000003 -0.000051 -0.000081 -7.347247 0.000000 0.004030 
127 1 1.220189 1.679445 -35.488531 0.000324 0.000499 0.004062 -0.000016 -0.000010 -0.000259 -7.347266 0.000000 0.004105 
117 1 -1.220189 -1.679447 -33.316249 0.000316 0.000626 0.005152 0.000023 -0.000003 -0.000060 -7.347257 0.000000 0.005199 
140 1 0.000001 -2.075908 -32.588916 0.000075 0.000701 0.005321 -0.000015 -0.000056 -0.000236 -7.347238 0.000000 0.005368 
121 1 1.220190 -1.679447 -33.316249 -0.000419 0.000626 0.005091 0.000004 0.000011 -0.000115 -7.347257 0.000000 0.005147 
136 1 -1.974305 -0.641492 -32.588915 0.000664 0.000148 0.005396 -0.000048 -0.000003 -0.000268 -7.347238 0.000000 0.005439 
113 1 -1.974307 0.641491 -33.316249 0.000658 -0.000188 0.005134 0.000010 -0.000008 -0.000040 -7.347256 0.000000 0.005179 
144 1 1.974306 -0.641491 -32.588915 -0.000711 0.000149 0.005291 0.000053 0.000002 -0.000245 -7.347238 0.000000 0.005341 
125 1 1.974308 0.641492 -33.316249 -0.000608 -0.000252 0.005139 -0.000005 -0.000018 -0.000080 -7.347256 0.000000 0.005181 
132 1 -1.220188 1.679444 -32.588915 0.000387 -0.000564 0.005426 -0.000037 0.000034 -0.000268 -7.347238 0.000000 0.005469 
129 1 0.000000 2.075909 -33.316249 0.000017 -0.000675 0.005131 0.000011 -0.000004 -0.000075 -7.347256 0.000000 0.005175 
148 1 1.220188 1.679445 -32.588915 -0.000497 -0.000551 0.005385 0.000022 0.000035 -0.000255 -7.347238 0.000000 0.005436 
138 1 -1.220191 -1.679450 -30.416656 -0.000371 -0.000554 0.004701 0.000020 -0.000028 0.000023 -7.347241 0.000000 0.004748 
139 1 0.000001 -2.075909 -31.143977 -0.000007 -0.000103 0.004376 -0.000023 -0.000072 -0.000106 -7.347268 0.000000 0.004378 
142 1 1.220193 -1.679451 -30.416656 0.000380 -0.000528 0.004667 0.000011 0.000007 0.000010 -7.347240 0.000000 0.004712 
135 1 -1.974305 -0.641492 -31.143977 -0.000106 0.000003 0.004271 -0.000081 -0.000000 -0.000096 -7.347270 0.000000 0.004272 
134 1 -1.974311 0.641492 -30.416657 -0.000639 0.000160 0.004745 -0.000004 0.000010 0.000014 -7.347241 0.000000 0.004790 
143 1 1.974307 -0.641491 -31.143977 0.000121 -0.000005 0.004410 0.000065 -0.000041 -0.000099 -7.347268 0.000000 0.004412 
146 1 1.974312 0.641492 -30.416656 0.000573 0.000252 0.004649 0.000002 0.000019 0.000006 -7.347242 0.000000 0.004691 
131 1 -1.220188 1.679444 -31.143977 -0.000009 0.000171 0.004305 -0.000048 0.000056 -0.000099 -7.347269 0.000000 0.004308 
150 1 0.000000 2.075914 -30.416656 -0.000097 0.000623 0.004677 -0.000012 0.000003 0.000010 -7.347241 0.000000 0.004719 
147 1 1.220188 1.679445 -31.143977 0.000167 0.000049 0.004346 0.000058 0.000058 -0.000093 -7.347269 0.000000 0.004350 
137 1 -1.220196 -1.679456 -28.971717 -0.000215 -0.000361 0.005549 0.000062 0.000084 -0.000250 -7.347260 0.000000 0.005565 
160 1 0.000001 -2.075922 -28.244404 -0.000015 0.000209 0.004881 -0.000000 0.000076 -0.000301 -7.347241 0.000000 0.004886 
141 1 1.220197 -1.679456 -28.971717 0.000218 -0.000341 0.005589 -0.000056 0.000090 -0.000239 -7.347260 0.000000 0.005604 
156 1 -1.974318 -0.641496 -28.244405 0.000130 0.000026 0.004872 0.000069 0.000031 -0.000265 -7.347240 0.000000 0.004874 
133 1 -1.974319 0.641495 -28.971718 -0.000381 0.000147 0.005519 0.000099 -0.000050 -0.000244 -7.347260 0.000000 0.005534 
164 1 1.974319 -0.641495 -28.244405 -0.000166 0.000034 0.004929 -0.000078 0.000017 -0.000285 -7.347240 0.000000 0.004932 
145 1 1.974319 0.641495 -28.971717 0.000422 0.000135 0.005517 -0.000095 -0.000040 -0.000243 -7.347261 0.000000 0.005535 
152 1 -1.220196 1.679455 -28.244405 0.000055 -0.000172 0.004897 0.000027 -0.000063 -0.000271 -7.347242 0.000000 0.004900 
149 1 -0.000000 2.075921 -28.971718 0.000063 0.000443 0.005559 0.000038 -0.000105 -0.000231 -7.347260 0.000000 0.005577 
168 1 1.220196 1.679455 -28.244405 -0.000110 -0.000167 0.004902 -0.000070 -0.000050 -0.000300 -7.347240 0.000000 0.004906 
158 1 -1.220192 -1.679451 -26.072172 0.000012 0.000108 0.005370 -0.000066 -0.000060 -0.000052 -7.347237 0.000000 0.005372 
159 1 0.000000 -2.075915 -26.799476 0.000048 0.000518 0.004814 0.000015 -0.000057 0.000013 -7.347263 0.000000 0.004842 
162 1 1.220192 -1.679451 -26.072172 -0.000018 0.000060 0.005408 0.000058 -0.000056 -0.000065 -7.347237 0.000000 0.005408 
155 1 -1.974312 -0.641494 -26.799476 0.000523 0.000200 0.004856 -0.000054 -0.000012 -0.000022 -7.347262 0.000000 0.004889 
154 1 -1.974312 0.641493 -26.072172 0.000043 -0.000088 0.005383 -0.000083 0.000017 -0.000074 -7.347237 0.000000 0.005384 
163 1 1.974313 -0.641493 -26.799476 -0.000525 0.000121 0.004754 0.000046 -0.000036 -0.000004 -7.347262 0.000000 0.004785 
166 1 1.974313 0.641493 -26.072172 -0.000079 -0.000050 0.005402 0.000084 0.000020 -0.000035 -7.347237 0.000000 0.005403 
151 1 -1.220192 1.679450 -26.799477 0.000320 -0.000382 0.004801 -0.000019 0.000055 -0.000002 -7.347263 0.000000 0.004826 
170 1 0.000000 2.075915 -26.072172 0.000017 -0.000090 0.005469 -0.000006 0.000073 -0.000058 -7.347236 0.000000 0.005470 
167 1 1.220192 1.679450 -26.799477 -0.000330 -0.000374 0.004780 0.000032 0.000056 0.000005 -7.347263 0.000000 0.004806 
157 1 -1.220197 -1.679457 -24.627243 -0.000380 -0.000481 0.004895 0.000046 -0.000013 -0.000309 -7.347268 0.000000 0.004934 
180 1 0.000001 -2.075929 -23.899952 0.000039 -0.000464 0.004093 -0.000029 0.000105 -0.000129 -7.347242 0.000000 0.004120 
161 1 1.220197 -1.679457 -24.627242 0.000352 -0.000490 0.004862 -0.000006 0.000007 -0.000324 -7.347269 0.000000 0.004899 
176 1 -1.974325 -0.641498 -23.899952 -0.000458 -0.000162 0.004090 0.000072 0.000052 -0.000136 -7.347245 0.000000 0.004118 
153 1 -1.974320 0.641495 -24.627243 -0.000548 0.000176 0.004806 0.000027 -0.000002 -0.000288 -7.347267 0.000000 0.004840 
184 1 1.974326 -0.641497 -23.899952 0.000441 -0.000194 0.004077 -0.000084 0.000034 -0.000123 -7.347244 0.000000 0.004106 
165 1 1.974320 0.641495 -24.627242 0.000572 0.000227 0.004948 -0.000031 0.000015 -0.000330 -7.347267 0.000000 0.004986 
172 1 -1.220200 1.679461 -23.899952 -0.000277 0.000425 0.004128 0.000041 -0.000082 -0.000122 -7.347243 0.000000 0.004159 
169 1 0.000000 2.075922 -24.627243 -0.000045 0.000604 0.004774 -0.000013 -0.000006 -0.000326 -7.347269 0.000000 0.004813 
188 1 1.220200 1.679462 -23.899952 0.000288 0.000380 0.004080 -0.000018 -0.000101 -0.000134 -7.347244 0.000000 0.004108 
179 1 0.000000 -2.075928 -22.455030 0.000000 0.000170 0.005185 -0.000014 0.000065 -0.000058 -7.347255 0.000000 0.005188 
175 1 -1.974325 -0.641497 -22.455031 0.000170 0.000014 0.005203 0.000071 0.000018 -0.000050 -7.347256 0.000000 0.005205 
183 1 1.974325 -0.641497 -22.455030 -0.000140 0.000125 0.005171 -0.000066 0.000019 -0.000057 -7.347255 0.000000 0.005174 
171 1 -1.220200 1.679461 -22.455030 0.000133 -0.000124 0.005153 0.000033 -0.000066 -0.000073 -7.347255 0.000000 0.005157 
187 1 1.220200 1.679461 -22.455031 0.000019 -0.000194 0.005144 -0.000065 -0.000037 -0.000048 -7.347255 0.000000 0.005147 
178 1 -1.220197 -1.679458 -21.727745 0.000235 0.000363 0.005478 -0.000002 -0.000016 -0.000268 -7.347239 0.000000 0.005495 
177 1 -1.220195 -1.679454 -20.282829 0.000110 0.000184 0.003840 -0.000050 -0.000095 -0.000112 -7.347266 0.000000 0.003846 
182 1 1.220197 -1.679457 -21.727744 -0.000312 0.000308 0.005551 0.000017 -0.000019 -0.000258 -7.347240 0.000000 0.005568 
181 1 1.220195 -1.679454 -20.282829 -0.000082 0.000151 0.003848 0.000086 -0.000057 -0.000112 -7.347265 0.000000 0.003852 
174 1 -1.974321 0.641496 -21.727745 0.000393 -0.000163 0.005536 -0.000021 0.000008 -0.000264 -7.347239 0.000000 0.005552 
173 1 -1.974317 0.641494 -20.282829 0.000180 0.000010 0.003849 -0.000093 0.000017 -0.000107 -7.347265 0.000000 0.003853 
186 1 1.974321 0.641496 -21.727745 -0.000416 -0.000105 0.005453 0.000025 -0.000006 -0.000268 -7.347240 0.000000 0.005470 
185 1 1.974317 0.641495 -20.282829 -0.000163 -0.000076 0.003879 0.000094 0.000030 -0.000103 -7.347266 0.000000 0.003883 
190 1 -0.000000 2.075924 -21.727745 -0.000066 -0.000410 0.005496 0.000019 0.000024 -0.000248 -7.347239 0.000000 0.005512 
189 1 -0.000000 2.075920 -20.282829 0.000022 -0.000169 0.003866 0.000004 0.000096 -0.000116 -7.347265 0.000000 0.003870 
200 1 0.000000 -2.075922 -19.555555 -0.000016 -0.000175 0.003770 -0.000022 -0.000083 0.000001 -7.347242 0.000000 0.003774 
199 1 0.000000 -2.075929 -18.110639 0.000017 -0.000319 0.005040 -0.000007 0.000016 -0.000197 -7.347260 0.000000 0.005051 
196 1 -1.974319 -0.641496 -19.555555 -0.000171 -0.000133 0.003777 -0.000084 0.000009 0.000003 -7.347242 0.000000 0.003783 
195 1 -1.974326 -0.641497 -18.110639 -0.000302 -0.000014 0.005011 0.000004 0.000003 -0.000202 -7.347262 0.000000 0.005020 
204 1 1.974319 -0.641495 -19.555555 0.000189 -0.000078 0.003732 0.000066 -0.000041 -0.000025 -7.347242 0.000000 0.003737 
203 1 1.974326 -0.641497 -18.110639 0.000268 -0.000122 0.005051 -0.000011 0.000004 -0.000183 -7.347261 0.000000 0.005060 
192 1 -1.220197 1.679456 -19.555555 -0.000150 0.000085 0.003741 -0.000045 0.000064 -0.000015 -7.347242 0.000000 0.003745 
191 1 -1.220201 1.679463 -18.110640 -0.000087 0.000343 0.005070 0.000008 -0.000020 -0.000174 -7.347260 0.000000 0.005082 
208 1 1.220196 1.679457 -19.555555 0.000077 0.000144 0.003722 0.000038 0.000069 -0.000014 -7.347242 0.000000 0.003726 
207 1 1.220200 1.679463 -18.110640 0.000144 0.000308 0.005051 -0.000002 -0.000013 -0.000185 -7.347261 0.000000 0.005062 
198 1 -1.220204 -1.679466 -17.383373 -0.000108 -0.000224 0.004310 0.000065 0.000042 -0.000257 -7.347240 0.000000 0.004317 
197 1 -1.220203 -1.679465 -15.938466 -0.000090 -0.000088 0.003370 0.000004 0.000041 0.000039 -7.347258 0.000000 0.003373 
202 1 1.220204 -1.679466 -17.383373 0.000130 -0.000161 0.004316 -0.000043 0.000054 -0.000247 -7.347240 0.000000 0.004321 
201 1 1.220203 -1.679465 -15.938466 0.000047 -0.000170 0.003300 -0.000020 0.000028 0.000028 -7.347259 0.000000 0.003304 
194 1 -1.974331 0.641499 -17.383373 -0.000281 -0.000044 0.004299 0.000073 -0.000010 -0.000274 -7.347240 0.000000 0.004309 
193 1 -1.974330 0.641499 -15.938466 -0.000105 0.000072 0.003298 0.000033 -0.000008 0.000051 -7.347259 0.000000 0.003300 
206 1 1.974330 0.641499 -17.383373 0.000226 0.000064 0.004266 -0.000067 -0.000015 -0.000246 -7.347240 0.000000 0.004272 
205 1 1.974329 0.641499 -15.938466 0.000118 0.000096 0.003373 -0.000035 -0.000014 0.000020 -7.347258 0.000000 0.003377 
210 1 -0.000000 2.075934 -17.383373 0.000017 0.000210 0.004310 -0.000013 -0.000067 -0.000282 -7.347241 0.000000 0.004315 
209 1 -0.000001 2.075934 -15.938466 -0.000040 0.000149 0.003307 0.000001 -0.000042 0.000058 -7.347259 0.000000 0.003311 
220 1 0.000000 -2.075929 -15.211207 -0.000016 0.000006 0.003545 0.000000 -0.000044 0.000043 -7.347244 0.000000 0.003545 
219 1 -0.000000 -2.075928 -13.766297 -0.000025 0.000159 0.003719 -0.000002 -0.000067 -0.000242 -7.347260 0.000000 0.003723 
216 1 -1.974327 -0.641497 -15.211207 0.000020 -0.000038 0.003557 -0.000029 -0.000026 0.000050 -7.347243 0.000000 0.003557 
215 1 -1.974326 -0.641497 -13.766297 0.000142 0.000106 0.003735 -0.000073 0.000000 -0.000253 -7.347260 0.000000 0.003739 
224 1 1.974326 -0.641497 -15.211207 0.000032 0.000060 0.003554 0.000040 -0.000002 0.000055 -7.347243 0.000000 0.003555 
223 1 1.974325 -0.641496 -13.766297 -0.000170 0.000064 0.003693 0.000064 -0.000047 -0.000243 -7.347260 0.000000 0.003697 
212 1 -1.220201 1.679463 -15.211207 -0.000035 -0.000012 0.003572 -0.000019 0.000029 0.000039 -7.347244 0.000000 0.003572 
211 1 -1.220201 1.679462 -13.766297 0.000070 -0.000094 0.003658 -0.000043 0.000064 -0.000240 -7.347262 0.000000 0.003660 
228 1 1.220200 1.679463 -15.211207 0.000094 -0.000124 0.003513 0.000028 0.000030 0.000052 -7.347244 0.000000 0.003517 
227 1 1.220200 1.679462 -13.766297 -0.000159 -0.000029 0.003758 0.000029 0.000070 -0.000257 -7.347260 0.000000 0.003762 
218 1 -1.220203 -1.679465 -13.039044 0.000005 -0.000114 0.002958 0.000002 -0.000022 -0.000121 -7.347244 0.000000 0.002960 
217 1 -1.220207 -1.679470 -11.594141 -0.000252 -0.000259 0.002749 0.000046 0.000055 -0.000010 -7.347258 0.000000 0.002773 
222 1 1.220203 -1.679465 -13.039044 0.000046 -0.000040 0.003047 0.000010 -0.000003 -0.000112 -7.347243 0.000000 0.003048 
221 1 1.220207 -1.679470 -11.594141 0.000218 -0.000303 0.002665 -0.000044 0.000051 -0.000029 -7.347257 0.000000 0.002692 
214 1 -1.974330 0.641499 -13.039044 -0.000073 -0.000006 0.002999 -0.000015 -0.000014 -0.000122 -7.347243 0.000000 0.003000 
213 1 -1.974336 0.641501 -11.594141 -0.000327 0.000076 0.002725 0.000074 -0.000006 -0.000023 -7.347257 0.000000 0.002745 
226 1 1.974329 0.641499 -13.039044 0.000068 -0.000036 0.002973 0.000020 0.000006 -0.000107 -7.347244 0.000000 0.002974 
225 1 1.974336 0.641502 -11.594141 0.000353 0.000174 0.002779 -0.000069 -0.000038 -0.000020 -7.347257 0.000000 0.002807 
230 1 -0.000000 2.075933 -13.039045 0.000064 0.000043 0.003014 0.000001 0.000016 -0.000118 -7.347243 0.000000 0.003015 
229 1 -0.000000 2.075941 -11.594141 -0.000005 0.000334 0.002690 0.000001 -0.000082 -0.000013 -7.347257 0.000000 0.002710 
240 1 -0.000000 -2.075942 -10.866894 0.000042 -0.000361 0.002699 0.000001 0.000110 -0.000095 -7.347244 0.000000 0.002724 
239 1 0.000000 -2.075938 -9.421992 -0.000029 0.000083 0.002232 -0.000037 0.000034 -0.000068 -7.347254 0.000000 0.002234 
236 1 -1.974339 -0.641501 -10.866894 -0.000346 -0.000117 0.002722 0.000097 0.000031 -0.000081 -7.347245 0.000000 0.002746 
235 1 -1.974335 -0.641500 -9.421992 0.000058 0.000043 0.002187 0.000032 0.000007 -0.000082 -7.347255 0.000000 0.002188 
244 1 1.974338 -0.641501 -10.866894 0.000322 -0.000215 0.002685 -0.000097 0.000055 -0.000097 -7.347244 0.000000 0.002712 
243 1 1.974335 -0.641500 -9.421992 -0.000050 0.000096 0.002267 -0.000034 0.000012 -0.000065 -7.347254 0.000000 0.002270 
232 1 -1.220209 1.679473 -10.866894 -0.000204 0.000340 0.002716 0.000063 -0.000083 -0.000089 -7.347244 0.000000 0.002745 
231 1 -1.220207 1.679470 -9.421992 0.000041 -0.000083 0.002243 0.000019 -0.000030 -0.000071 -7.347254 0.000000 0.002245 
248 1 1.220208 1.679473 -10.866894 0.000204 0.000305 0.002698 -0.000071 -0.000079 -0.000096 -7.347244 0.000000 0.002723 
247 1 1.220205 1.679470 -9.421992 -0.000026 -0.000067 0.002210 -0.000003 -0.000042 -0.000068 -7.347255 0.000000 0.002211 
238 1 -1.220204 -1.679466 -8.694750 0.000265 0.000275 0.001445 0.000004 -0.000043 -0.000084 -7.347246 0.000000 0.001495 
242 1 1.220204 -1.679466 -8.694750 -0.000240 0.000324 0.001461 0.000036 -0.000026 -0.000056 -7.347247 0.000000 0.001516 
234 1 -1.974332 0.641499 -8.694750 0.000375 -0.000099 0.001508 -0.000031 0.000018 -0.000074 -7.347246 0.000000 0.001557 
246 1 1.974331 0.641500 -8.694749 -0.000377 -0.000149 0.001459 0.000033 0.000016 -0.000093 -7.347247 0.000000 0.001514 
250 1 -0.000001 2.075935 -8.694750 -0.000035 -0.000382 0.001504 -0.000010 0.000041 -0.000068 -7.347247 0.000000 0.001552 
237 1 -1.220203 -1.679465 -7.249850 0.000061 0.000291 0.001865 -0.000037 -0.000065 -0.000092 -7.347258 0.000000 0.001889 