ITEM: TIMESTEP
1000
ITEM: NUMBER OF ATOMS
10082
ITEM: BOX BOUNDS ff mm ff
-27 27
-17 27
-27 27
ITEM: ATOMS id mol type x y z vx vy vz c_atom_ke c_atom_pe c_atom_CN c_atom_dr[4] c_atom_centro 
9073 10 1 -25.100499 -15.300000 -26.011719 0.000000 0.000000 0.000000 0.000000 -4.587574 1 0.000000 0.0000 
9325 10 1 -24.031285 -15.300000 -25.267206 0.000000 0.000000 0.000000 0.000000 -8.196616 1 0.000000 0.0000 
9094 10 1 -20.996747 -15.300000 -25.236021 0.000000 0.000000 0.000000 0.000000 -6.838003 1 0.000000 0.0000 
9346 10 1 -19.688871 -15.300000 -25.292042 0.000000 0.000000 0.000000 0.000000 -6.858408 1 0.000000 0.0000 
9598 10 1 -18.740222 -15.300000 -24.304154 0.000000 0.000000 0.000000 0.000000 -8.499662 1 0.000000 0.0000 
9850 10 1 -17.362232 -15.300000 -24.342094 0.000000 0.000000 0.000000 0.000000 -8.550454 1 0.000000 0.0000 
9367 10 1 -15.186648 -15.300000 -25.415177 0.000000 0.000000 0.000000 0.000000 -6.776847 1 0.000000 0.0000 
9115 10 1 -16.494590 -15.300000 -25.400115 0.000000 0.000000 0.000000 0.000000 -6.831164 1 0.000000 0.0000 
9619 10 1 -14.289701 -15.300000 -24.384284 0.000000 0.000000 0.000000 0.000000 -8.503397 1 0.000000 0.0000 
9136 10 1 -12.052110 -15.300000 -25.456974 0.000000 0.000000 0.000000 0.000000 -6.685900 1 0.000000 0.0000 
9871 10 1 -12.915652 -15.300000 -24.398848 0.000000 0.000000 0.000000 0.000000 -8.409072 1 0.000000 0.0000 
9388 10 1 -10.745273 -15.300000 -25.462831 0.000000 0.000000 0.000000 0.000000 -6.774699 1 0.000000 0.0000 
9640 10 1 -9.869661 -15.300000 -24.416136 0.000000 0.000000 0.000000 0.000000 -8.547693 1 0.000000 0.0000 
9157 10 1 -7.638980 -15.300000 -25.482341 0.000000 0.000000 0.000000 0.000000 -6.690133 1 0.000000 0.0000 
9892 10 1 -8.498481 -15.300000 -24.422649 0.000000 0.000000 0.000000 0.000000 -8.432518 1 0.000000 0.0000 
9409 10 1 -6.332638 -15.300000 -25.484676 0.000000 0.000000 0.000000 0.000000 -6.722382 1 0.000000 0.0000 
9661 10 1 -5.467890 -15.300000 -24.430051 0.000000 0.000000 0.000000 0.000000 -8.531820 1 0.000000 0.0000 
9913 10 1 -4.098231 -15.300000 -24.432794 0.000000 0.000000 0.000000 0.000000 -8.452314 1 0.000000 0.0000 
9178 10 1 -3.240695 -15.300000 -25.493197 0.000000 0.000000 0.000000 0.000000 -6.669481 1 0.000000 0.0000 
9430 10 1 -1.934582 -15.300000 -25.493991 0.000000 0.000000 0.000000 0.000000 -6.677966 1 0.000000 0.0000 
9199 10 1 1.151810 -15.300000 -25.495794 0.000000 0.000000 0.000000 0.000000 -6.691889 1 0.000000 0.0000 
9682 10 1 -1.075161 -15.300000 -24.435427 0.000000 0.000000 0.000000 0.000000 -8.459740 1 0.000000 0.0000 
9934 10 1 0.293896 -15.300000 -24.436024 0.000000 0.000000 0.000000 0.000000 -8.461146 1 0.000000 0.0000 
9451 10 1 2.457880 -15.300000 -25.495721 0.000000 0.000000 0.000000 0.000000 -6.662640 1 0.000000 0.0000 
9703 10 1 3.315488 -15.300000 -24.435609 0.000000 0.000000 0.000000 0.000000 -8.471553 1 0.000000 0.0000 
9220 10 1 5.545973 -15.300000 -25.491553 0.000000 0.000000 0.000000 0.000000 -6.727828 1 0.000000 0.0000 
9955 10 1 4.684731 -15.300000 -24.434341 0.000000 0.000000 0.000000 0.000000 -8.509410 1 0.000000 0.0000 
9472 10 1 6.852171 -15.300000 -25.490381 0.000000 0.000000 0.000000 0.000000 -6.694838 1 0.000000 0.0000 
9724 10 1 7.710527 -15.300000 -24.430306 0.000000 0.000000 0.000000 0.000000 -8.470998 1 0.000000 0.0000 
9241 10 1 9.949562 -15.300000 -25.477993 0.000000 0.000000 0.000000 0.000000 -6.694558 1 0.000000 0.0000 
9493 10 1 11.256094 -15.300000 -25.474459 0.000000 0.000000 0.000000 0.000000 -6.728886 1 0.000000 0.0000 
9976 10 1 9.080770 -15.300000 -24.426294 0.000000 0.000000 0.000000 0.000000 -8.469409 1 0.000000 0.0000 
9745 10 1 12.117261 -15.300000 -24.415467 0.000000 0.000000 0.000000 0.000000 -8.498914 1 0.000000 0.0000 
9997 10 1 13.489523 -15.300000 -24.406136 0.000000 0.000000 0.000000 0.000000 -8.424770 1 0.000000 0.0000 
9262 10 1 14.372821 -15.300000 -25.447177 0.000000 0.000000 0.000000 0.000000 -6.757692 1 0.000000 0.0000 
9514 10 1 15.680013 -15.300000 -25.438084 0.000000 0.000000 0.000000 0.000000 -6.745720 1 0.000000 0.0000 
9766 10 1 16.545497 -15.300000 -24.380399 0.000000 0.000000 0.000000 0.000000 -8.538071 1 0.000000 0.0000 
9283 10 1 18.832623 -15.300000 -25.379104 0.000000 0.000000 0.000000 0.000000 -6.779614 1 0.000000 0.0000 
10018 10 1 17.921274 -15.300000 -24.359183 0.000000 0.000000 0.000000 0.000000 -8.435265 1 0.000000 0.0000 
9535 10 1 20.141230 -15.300000 -25.354090 0.000000 0.000000 0.000000 0.000000 -6.807871 1 0.000000 0.0000 
9304 10 1 23.360923 -15.300000 -25.193810 0.000000 0.000000 0.000000 0.000000 -6.916655 1 0.000000 0.0000 
9556 10 1 24.663791 -15.300000 -25.117655 0.000000 0.000000 0.000000 0.000000 -6.847821 1 0.000000 0.0000 
8065 9 1 -26.520499 -11.900000 -26.011719 0.000000 0.000000 0.000000 0.000000 -4.587574 1 0.000000 0.0000 
8317 9 1 -25.451285 -11.900000 -25.267206 0.000000 0.000000 0.000000 0.000000 -8.197586 1 0.000000 0.0000 
8086 9 1 -22.416747 -11.900000 -25.236021 0.000000 0.000000 0.000000 0.000000 -6.800505 1 0.000000 0.0000 
8338 9 1 -21.108871 -11.900000 -25.292042 0.000000 0.000000 0.000000 0.000000 -6.863961 1 0.000000 0.0000 
8590 9 1 -20.160222 -11.900000 -24.304154 0.000000 0.000000 0.000000 0.000000 -8.530303 1 0.000000 0.0000 
8107 9 1 -17.914590 -11.900000 -25.400115 0.000000 0.000000 0.000000 0.000000 -6.720051 1 0.000000 0.0000 
8842 9 1 -18.782232 -11.900000 -24.342094 0.000000 0.000000 0.000000 0.000000 -8.504718 1 0.000000 0.0000 
8359 9 1 -16.606648 -11.900000 -25.415177 0.000000 0.000000 0.000000 0.000000 -6.824444 1 0.000000 0.0000 
8611 9 1 -15.709701 -11.900000 -24.384284 0.000000 0.000000 0.000000 0.000000 -8.498694 1 0.000000 0.0000 
8863 9 1 -14.335652 -11.900000 -24.398848 0.000000 0.000000 0.000000 0.000000 -8.482466 1 0.000000 0.0000 
8128 9 1 -13.472110 -11.900000 -25.456974 0.000000 0.000000 0.000000 0.000000 -6.722480 1 0.000000 0.0000 
8380 9 1 -12.165273 -11.900000 -25.462831 0.000000 0.000000 0.000000 0.000000 -6.732037 1 0.000000 0.0000 
8149 9 1 -9.058980 -11.900000 -25.482341 0.000000 0.000000 0.000000 0.000000 -6.738711 1 0.000000 0.0000 
8632 9 1 -11.289661 -11.900000 -24.416136 0.000000 0.000000 0.000000 0.000000 -8.481563 1 0.000000 0.0000 
8884 9 1 -9.918481 -11.900000 -24.422649 0.000000 0.000000 0.000000 0.000000 -8.505720 1 0.000000 0.0000 
8401 9 1 -7.752638 -11.900000 -25.484676 0.000000 0.000000 0.000000 0.000000 -6.730811 1 0.000000 0.0000 
8653 9 1 -6.887890 -11.900000 -24.430051 0.000000 0.000000 0.000000 0.000000 -8.493527 1 0.000000 0.0000 
8170 9 1 -4.660695 -11.900000 -25.493197 0.000000 0.000000 0.000000 0.000000 -6.701783 1 0.000000 0.0000 
8905 9 1 -5.518231 -11.900000 -24.432794 0.000000 0.000000 0.000000 0.000000 -8.455947 1 0.000000 0.0000 
8422 9 1 -3.354582 -11.900000 -25.493991 0.000000 0.000000 0.000000 0.000000 -6.696718 1 0.000000 0.0000 
8674 9 1 -2.495161 -11.900000 -24.435427 0.000000 0.000000 0.000000 0.000000 -8.455620 1 0.000000 0.0000 
8191 9 1 -0.268190 -11.900000 -25.495794 0.000000 0.000000 0.000000 0.000000 -6.685725 1 0.000000 0.0000 
8443 9 1 1.037880 -11.900000 -25.495721 0.000000 0.000000 0.000000 0.000000 -6.727240 1 0.000000 0.0000 
8926 9 1 -1.126104 -11.900000 -24.436024 0.000000 0.000000 0.000000 0.000000 -8.464044 1 0.000000 0.0000 
8695 9 1 1.895488 -11.900000 -24.435609 0.000000 0.000000 0.000000 0.000000 -8.502369 1 0.000000 0.0000 
8947 9 1 3.264731 -11.900000 -24.434341 0.000000 0.000000 0.000000 0.000000 -8.457805 1 0.000000 0.0000 
8212 9 1 4.125973 -11.900000 -25.491553 0.000000 0.000000 0.000000 0.000000 -6.698387 1 0.000000 0.0000 
8464 9 1 5.432171 -11.900000 -25.490381 0.000000 0.000000 0.000000 0.000000 -6.714472 1 0.000000 0.0000 
8716 9 1 6.290527 -11.900000 -24.430306 0.000000 0.000000 0.000000 0.000000 -8.474317 1 0.000000 0.0000 
8233 9 1 8.529562 -11.900000 -25.477993 0.000000 0.000000 0.000000 0.000000 -6.774916 1 0.000000 0.0000 
8968 9 1 7.660770 -11.900000 -24.426294 0.000000 0.000000 0.000000 0.000000 -8.459230 1 0.000000 0.0000 
8485 9 1 9.836094 -11.900000 -25.474459 0.000000 0.000000 0.000000 0.000000 -6.662581 1 0.000000 0.0000 
8737 9 1 10.697261 -11.900000 -24.415467 0.000000 0.000000 0.000000 0.000000 -8.466496 1 0.000000 0.0000 
8254 9 1 12.952821 -11.900000 -25.447177 0.000000 0.000000 0.000000 0.000000 -6.748454 1 0.000000 0.0000 
8989 9 1 12.069523 -11.900000 -24.406136 0.000000 0.000000 0.000000 0.000000 -8.491881 1 0.000000 0.0000 
8506 9 1 14.260013 -11.900000 -25.438084 0.000000 0.000000 0.000000 0.000000 -6.730360 1 0.000000 0.0000 
8758 9 1 15.125497 -11.900000 -24.380399 0.000000 0.000000 0.000000 0.000000 -8.544893 1 0.000000 0.0000 
9010 9 1 16.501274 -11.900000 -24.359183 0.000000 0.000000 0.000000 0.000000 -8.495615 1 0.000000 0.0000 
8275 9 1 17.412623 -11.900000 -25.379104 0.000000 0.000000 0.000000 0.000000 -6.800962 1 0.000000 0.0000 
8527 9 1 18.721230 -11.900000 -25.354090 0.000000 0.000000 0.000000 0.000000 -6.750674 1 0.000000 0.0000 
8296 9 1 21.940923 -11.900000 -25.193810 0.000000 0.000000 0.000000 0.000000 -6.850356 1 0.000000 0.0000 
8548 9 1 23.243791 -11.900000 -25.117655 0.000000 0.000000 0.000000 0.000000 -6.866805 1 0.000000 0.0000 
7057 8 1 -25.100499 -8.500000 -26.011719 0.000000 0.000000 0.000000 0.000000 -4.587574 1 0.000000 0.0000 
7309 8 1 -24.031285 -8.500000 -25.267206 0.000000 0.000000 0.000000 0.000000 -8.202203 1 0.000000 0.0000 
7078 8 1 -20.996747 -8.500000 -25.236021 0.000000 0.000000 0.000000 0.000000 -6.816452 1 0.000000 0.0000 
7330 8 1 -19.688871 -8.500000 -25.292042 0.000000 0.000000 0.000000 0.000000 -6.862712 1 0.000000 0.0000 
7582 8 1 -18.740222 -8.500000 -24.304154 0.000000 0.000000 0.000000 0.000000 -8.467563 1 0.000000 0.0000 
7834 8 1 -17.362232 -8.500000 -24.342094 0.000000 0.000000 0.000000 0.000000 -8.438619 1 0.000000 0.0000 
7351 8 1 -15.186648 -8.500000 -25.415177 0.000000 0.000000 0.000000 0.000000 -6.799056 1 0.000000 0.0000 
7099 8 1 -16.494590 -8.500000 -25.400115 0.000000 0.000000 0.000000 0.000000 -6.768262 1 0.000000 0.0000 
7603 8 1 -14.289701 -8.500000 -24.384284 0.000000 0.000000 0.000000 0.000000 -8.491233 1 0.000000 0.0000 
7120 8 1 -12.052110 -8.500000 -25.456974 0.000000 0.000000 0.000000 0.000000 -6.736938 1 0.000000 0.0000 
7855 8 1 -12.915652 -8.500000 -24.398848 0.000000 0.000000 0.000000 0.000000 -8.532053 1 0.000000 0.0000 
7372 8 1 -10.745273 -8.500000 -25.462831 0.000000 0.000000 0.000000 0.000000 -6.726959 1 0.000000 0.0000 
7624 8 1 -9.869661 -8.500000 -24.416136 0.000000 0.000000 0.000000 0.000000 -8.414846 1 0.000000 0.0000 
7141 8 1 -7.638980 -8.500000 -25.482341 0.000000 0.000000 0.000000 0.000000 -6.702641 1 0.000000 0.0000 
7876 8 1 -8.498481 -8.500000 -24.422649 0.000000 0.000000 0.000000 0.000000 -8.490553 1 0.000000 0.0000 
7393 8 1 -6.332638 -8.500000 -25.484676 0.000000 0.000000 0.000000 0.000000 -6.735873 1 0.000000 0.0000 
7645 8 1 -5.467890 -8.500000 -24.430051 0.000000 0.000000 0.000000 0.000000 -8.475510 1 0.000000 0.0000 
7897 8 1 -4.098231 -8.500000 -24.432794 0.000000 0.000000 0.000000 0.000000 -8.437556 1 0.000000 0.0000 
7162 8 1 -3.240695 -8.500000 -25.493197 0.000000 0.000000 0.000000 0.000000 -6.676282 1 0.000000 0.0000 
7414 8 1 -1.934582 -8.500000 -25.493991 0.000000 0.000000 0.000000 0.000000 -6.758407 1 0.000000 0.0000 
7183 8 1 1.151810 -8.500000 -25.495794 0.000000 0.000000 0.000000 0.000000 -6.697391 1 0.000000 0.0000 
7666 8 1 -1.075161 -8.500000 -24.435427 0.000000 0.000000 0.000000 0.000000 -8.529336 1 0.000000 0.0000 
7918 8 1 0.293896 -8.500000 -24.436024 0.000000 0.000000 0.000000 0.000000 -8.463348 1 0.000000 0.0000 
7435 8 1 2.457880 -8.500000 -25.495721 0.000000 0.000000 0.000000 0.000000 -6.691726 1 0.000000 0.0000 
7687 8 1 3.315488 -8.500000 -24.435609 0.000000 0.000000 0.000000 0.000000 -8.424720 1 0.000000 0.0000 
7204 8 1 5.545973 -8.500000 -25.491553 0.000000 0.000000 0.000000 0.000000 -6.708618 1 0.000000 0.0000 
7939 8 1 4.684731 -8.500000 -24.434341 0.000000 0.000000 0.000000 0.000000 -8.443998 1 0.000000 0.0000 
7456 8 1 6.852171 -8.500000 -25.490381 0.000000 0.000000 0.000000 0.000000 -6.733650 1 0.000000 0.0000 
7708 8 1 7.710527 -8.500000 -24.430306 0.000000 0.000000 0.000000 0.000000 -8.507385 1 0.000000 0.0000 
7225 8 1 9.949562 -8.500000 -25.477993 0.000000 0.000000 0.000000 0.000000 -6.696202 1 0.000000 0.0000 
7477 8 1 11.256094 -8.500000 -25.474459 0.000000 0.000000 0.000000 0.000000 -6.719203 1 0.000000 0.0000 
7960 8 1 9.080770 -8.500000 -24.426294 0.000000 0.000000 0.000000 0.000000 -8.427962 1 0.000000 0.0000 
7729 8 1 12.117261 -8.500000 -24.415467 0.000000 0.000000 0.000000 0.000000 -8.545142 1 0.000000 0.0000 
7981 8 1 13.489523 -8.500000 -24.406136 0.000000 0.000000 0.000000 0.000000 -8.512255 1 0.000000 0.0000 
7246 8 1 14.372821 -8.500000 -25.447177 0.000000 0.000000 0.000000 0.000000 -6.743340 1 0.000000 0.0000 
7498 8 1 15.680013 -8.500000 -25.438084 0.000000 0.000000 0.000000 0.000000 -6.745282 1 0.000000 0.0000 
7750 8 1 16.545497 -8.500000 -24.380399 0.000000 0.000000 0.000000 0.000000 -8.454572 1 0.000000 0.0000 
7267 8 1 18.832623 -8.500000 -25.379104 0.000000 0.000000 0.000000 0.000000 -6.831570 1 0.000000 0.0000 
8002 8 1 17.921274 -8.500000 -24.359183 0.000000 0.000000 0.000000 0.000000 -8.536436 1 0.000000 0.0000 
7519 8 1 20.141230 -8.500000 -25.354090 0.000000 0.000000 0.000000 0.000000 -6.805198 1 0.000000 0.0000 
7288 8 1 23.360923 -8.500000 -25.193810 0.000000 0.000000 0.000000 0.000000 -6.887134 1 0.000000 0.0000 
7540 8 1 24.663791 -8.500000 -25.117655 0.000000 0.000000 0.000000 0.000000 -6.847821 1 0.000000 0.0000 
6049 7 1 -26.520499 -5.100000 -26.011719 0.000000 0.000000 0.000000 0.000000 -4.587574 1 0.000000 0.0000 
6301 7 1 -25.451285 -5.100000 -25.267206 0.000000 0.000000 0.000000 0.000000 -8.197586 1 0.000000 0.0000 
6070 7 1 -22.416747 -5.100000 -25.236021 0.000000 0.000000 0.000000 0.000000 -6.814418 1 0.000000 0.0000 
6322 7 1 -21.108871 -5.100000 -25.292042 0.000000 0.000000 0.000000 0.000000 -6.855871 1 0.000000 0.0000 
6574 7 1 -20.160222 -5.100000 -24.304154 0.000000 0.000000 0.000000 0.000000 -8.465419 1 0.000000 0.0000 
6091 7 1 -17.914590 -5.100000 -25.400115 0.000000 0.000000 0.000000 0.000000 -6.769818 1 0.000000 0.0000 
6826 7 1 -18.782232 -5.100000 -24.342094 0.000000 0.000000 0.000000 0.000000 -8.537111 1 0.000000 0.0000 
6343 7 1 -16.606648 -5.100000 -25.415177 0.000000 0.000000 0.000000 0.000000 -6.771841 1 0.000000 0.0000 
6595 7 1 -15.709701 -5.100000 -24.384284 0.000000 0.000000 0.000000 0.000000 -8.423234 1 0.000000 0.0000 
6847 7 1 -14.335652 -5.100000 -24.398848 0.000000 0.000000 0.000000 0.000000 -8.540210 1 0.000000 0.0000 
6112 7 1 -13.472110 -5.100000 -25.456974 0.000000 0.000000 0.000000 0.000000 -6.768237 1 0.000000 0.0000 
6364 7 1 -12.165273 -5.100000 -25.462831 0.000000 0.000000 0.000000 0.000000 -6.758915 1 0.000000 0.0000 
6133 7 1 -9.058980 -5.100000 -25.482341 0.000000 0.000000 0.000000 0.000000 -6.713229 1 0.000000 0.0000 
6616 7 1 -11.289661 -5.100000 -24.416136 0.000000 0.000000 0.000000 0.000000 -8.486166 1 0.000000 0.0000 
6868 7 1 -9.918481 -5.100000 -24.422649 0.000000 0.000000 0.000000 0.000000 -8.474569 1 0.000000 0.0000 
6385 7 1 -7.752638 -5.100000 -25.484676 0.000000 0.000000 0.000000 0.000000 -6.691535 1 0.000000 0.0000 
6637 7 1 -6.887890 -5.100000 -24.430051 0.000000 0.000000 0.000000 0.000000 -8.383623 1 0.000000 0.0000 
6154 7 1 -4.660695 -5.100000 -25.493197 0.000000 0.000000 0.000000 0.000000 -6.761006 1 0.000000 0.0000 
6889 7 1 -5.518231 -5.100000 -24.432794 0.000000 0.000000 0.000000 0.000000 -8.549231 1 0.000000 0.0000 
6406 7 1 -3.354582 -5.100000 -25.493991 0.000000 0.000000 0.000000 0.000000 -6.681062 1 0.000000 0.0000 
6658 7 1 -2.495161 -5.100000 -24.435427 0.000000 0.000000 0.000000 0.000000 -8.466453 1 0.000000 0.0000 
6175 7 1 -0.268190 -5.100000 -25.495794 0.000000 0.000000 0.000000 0.000000 -6.706019 1 0.000000 0.0000 
6427 7 1 1.037880 -5.100000 -25.495721 0.000000 0.000000 0.000000 0.000000 -6.698972 1 0.000000 0.0000 
6910 7 1 -1.126104 -5.100000 -24.436024 0.000000 0.000000 0.000000 0.000000 -8.498561 1 0.000000 0.0000 
6679 7 1 1.895488 -5.100000 -24.435609 0.000000 0.000000 0.000000 0.000000 -8.489732 1 0.000000 0.0000 
6931 7 1 3.264731 -5.100000 -24.434341 0.000000 0.000000 0.000000 0.000000 -8.475898 1 0.000000 0.0000 
6196 7 1 4.125973 -5.100000 -25.491553 0.000000 0.000000 0.000000 0.000000 -6.714147 1 0.000000 0.0000 
6448 7 1 5.432171 -5.100000 -25.490381 0.000000 0.000000 0.000000 0.000000 -6.705141 1 0.000000 0.0000 
6700 7 1 6.290527 -5.100000 -24.430306 0.000000 0.000000 0.000000 0.000000 -8.483925 1 0.000000 0.0000 
6217 7 1 8.529562 -5.100000 -25.477993 0.000000 0.000000 0.000000 0.000000 -6.707045 1 0.000000 0.0000 
6952 7 1 7.660770 -5.100000 -24.426294 0.000000 0.000000 0.000000 0.000000 -8.448282 1 0.000000 0.0000 
6469 7 1 9.836094 -5.100000 -25.474459 0.000000 0.000000 0.000000 0.000000 -6.717564 1 0.000000 0.0000 
6721 7 1 10.697261 -5.100000 -24.415467 0.000000 0.000000 0.000000 0.000000 -8.509370 1 0.000000 0.0000 
6238 7 1 12.952821 -5.100000 -25.447177 0.000000 0.000000 0.000000 0.000000 -6.746034 1 0.000000 0.0000 
6973 7 1 12.069523 -5.100000 -24.406136 0.000000 0.000000 0.000000 0.000000 -8.410870 1 0.000000 0.0000 
6490 7 1 14.260013 -5.100000 -25.438084 0.000000 0.000000 0.000000 0.000000 -6.768748 1 0.000000 0.0000 
6742 7 1 15.125497 -5.100000 -24.380399 0.000000 0.000000 0.000000 0.000000 -8.529525 1 0.000000 0.0000 
6994 7 1 16.501274 -5.100000 -24.359183 0.000000 0.000000 0.000000 0.000000 -8.498196 1 0.000000 0.0000 
6259 7 1 17.412623 -5.100000 -25.379104 0.000000 0.000000 0.000000 0.000000 -6.815334 1 0.000000 0.0000 
6511 7 1 18.721230 -5.100000 -25.354090 0.000000 0.000000 0.000000 0.000000 -6.788290 1 0.000000 0.0000 
6280 7 1 21.940923 -5.100000 -25.193810 0.000000 0.000000 0.000000 0.000000 -6.932705 1 0.000000 0.0000 
6532 7 1 23.243791 -5.100000 -25.117655 0.000000 0.000000 0.000000 0.000000 -6.804219 1 0.000000 0.0000 
5041 6 1 -25.100499 -1.700000 -26.011719 0.000000 0.000000 0.000000 0.000000 -4.587574 1 0.000000 0.0000 
5293 6 1 -24.031285 -1.700000 -25.267206 0.000000 0.000000 0.000000 0.000000 -8.215867 1 0.000000 0.0000 
5062 6 1 -20.996747 -1.700000 -25.236021 0.000000 0.000000 0.000000 0.000000 -6.784568 1 0.000000 0.0000 
5314 6 1 -19.688871 -1.700000 -25.292042 0.000000 0.000000 0.000000 0.000000 -6.835693 1 0.000000 0.0000 
5566 6 1 -18.740222 -1.700000 -24.304154 0.000000 0.000000 0.000000 0.000000 -8.485346 1 0.000000 0.0000 
5818 6 1 -17.362232 -1.700000 -24.342094 0.000000 0.000000 0.000000 0.000000 -8.492366 1 0.000000 0.0000 
5335 6 1 -15.186648 -1.700000 -25.415177 0.000000 0.000000 0.000000 0.000000 -6.777525 1 0.000000 0.0000 
5083 6 1 -16.494590 -1.700000 -25.400115 0.000000 0.000000 0.000000 0.000000 -6.734008 1 0.000000 0.0000 
5587 6 1 -14.289701 -1.700000 -24.384284 0.000000 0.000000 0.000000 0.000000 -8.502027 1 0.000000 0.0000 
5104 6 1 -12.052110 -1.700000 -25.456974 0.000000 0.000000 0.000000 0.000000 -6.749631 1 0.000000 0.0000 
5839 6 1 -12.915652 -1.700000 -24.398848 0.000000 0.000000 0.000000 0.000000 -8.510893 1 0.000000 0.0000 
5356 6 1 -10.745273 -1.700000 -25.462831 0.000000 0.000000 0.000000 0.000000 -6.724636 1 0.000000 0.0000 
5608 6 1 -9.869661 -1.700000 -24.416136 0.000000 0.000000 0.000000 0.000000 -8.450245 1 0.000000 0.0000 
5125 6 1 -7.638980 -1.700000 -25.482341 0.000000 0.000000 0.000000 0.000000 -6.755104 1 0.000000 0.0000 
5860 6 1 -8.498481 -1.700000 -24.422649 0.000000 0.000000 0.000000 0.000000 -8.480056 1 0.000000 0.0000 
5377 6 1 -6.332638 -1.700000 -25.484676 0.000000 0.000000 0.000000 0.000000 -6.689838 1 0.000000 0.0000 
5629 6 1 -5.467890 -1.700000 -24.430051 0.000000 0.000000 0.000000 0.000000 -8.481893 1 0.000000 0.0000 
5881 6 1 -4.098231 -1.700000 -24.432794 0.000000 0.000000 0.000000 0.000000 -8.492841 1 0.000000 0.0000 
5146 6 1 -3.240695 -1.700000 -25.493197 0.000000 0.000000 0.000000 0.000000 -6.710750 1 0.000000 0.0000 
5398 6 1 -1.934582 -1.700000 -25.493991 0.000000 0.000000 0.000000 0.000000 -6.709816 1 0.000000 0.0000 
5167 6 1 1.151810 -1.700000 -25.495794 0.000000 0.000000 0.000000 0.000000 -6.715329 1 0.000000 0.0000 
5650 6 1 -1.075161 -1.700000 -24.435427 0.000000 0.000000 0.000000 0.000000 -8.459269 1 0.000000 0.0000 
5902 6 1 0.293896 -1.700000 -24.436024 0.000000 0.000000 0.000000 0.000000 -8.464225 1 0.000000 0.0000 
5419 6 1 2.457880 -1.700000 -25.495721 0.000000 0.000000 0.000000 0.000000 -6.692969 1 0.000000 0.0000 
5671 6 1 3.315488 -1.700000 -24.435609 0.000000 0.000000 0.000000 0.000000 -8.512837 1 0.000000 0.0000 
5188 6 1 5.545973 -1.700000 -25.491553 0.000000 0.000000 0.000000 0.000000 -6.679700 1 0.000000 0.0000 
5923 6 1 4.684731 -1.700000 -24.434341 0.000000 0.000000 0.000000 0.000000 -8.480318 1 0.000000 0.0000 
5440 6 1 6.852171 -1.700000 -25.490381 0.000000 0.000000 0.000000 0.000000 -6.716296 1 0.000000 0.0000 
5692 6 1 7.710527 -1.700000 -24.430306 0.000000 0.000000 0.000000 0.000000 -8.421948 1 0.000000 0.0000 
5209 6 1 9.949562 -1.700000 -25.477993 0.000000 0.000000 0.000000 0.000000 -6.752293 1 0.000000 0.0000 
5461 6 1 11.256094 -1.700000 -25.474459 0.000000 0.000000 0.000000 0.000000 -6.690127 1 0.000000 0.0000 
5944 6 1 9.080770 -1.700000 -24.426294 0.000000 0.000000 0.000000 0.000000 -8.470445 1 0.000000 0.0000 
5713 6 1 12.117261 -1.700000 -24.415467 0.000000 0.000000 0.000000 0.000000 -8.431493 1 0.000000 0.0000 
5965 6 1 13.489523 -1.700000 -24.406136 0.000000 0.000000 0.000000 0.000000 -8.514434 1 0.000000 0.0000 
5230 6 1 14.372821 -1.700000 -25.447177 0.000000 0.000000 0.000000 0.000000 -6.786545 1 0.000000 0.0000 
5482 6 1 15.680013 -1.700000 -25.438084 0.000000 0.000000 0.000000 0.000000 -6.716314 1 0.000000 0.0000 
5734 6 1 16.545497 -1.700000 -24.380399 0.000000 0.000000 0.000000 0.000000 -8.508290 1 0.000000 0.0000 
5251 6 1 18.832623 -1.700000 -25.379104 0.000000 0.000000 0.000000 0.000000 -6.815974 1 0.000000 0.0000 
5986 6 1 17.921274 -1.700000 -24.359183 0.000000 0.000000 0.000000 0.000000 -8.479780 1 0.000000 0.0000 
5503 6 1 20.141230 -1.700000 -25.354090 0.000000 0.000000 0.000000 0.000000 -6.783213 1 0.000000 0.0000 
5272 6 1 23.360923 -1.700000 -25.193810 0.000000 0.000000 0.000000 0.000000 -6.908375 1 0.000000 0.0000 
5524 6 1 24.663791 -1.700000 -25.117655 0.000000 0.000000 0.000000 0.000000 -6.847821 1 0.000000 0.0000 
4033 5 1 -26.520499 1.700000 -26.011719 0.000000 0.000000 0.000000 0.000000 -4.587574 1 0.000000 0.0000 
4285 5 1 -25.451285 1.700000 -25.267206 0.000000 0.000000 0.000000 0.000000 -8.197586 1 0.000000 0.0000 
4054 5 1 -22.416747 1.700000 -25.236021 0.000000 0.000000 0.000000 0.000000 -6.789787 1 0.000000 0.0000 
4306 5 1 -21.108871 1.700000 -25.292042 0.000000 0.000000 0.000000 0.000000 -6.862838 1 0.000000 0.0000 
4558 5 1 -20.160222 1.700000 -24.304154 0.000000 0.000000 0.000000 0.000000 -8.509781 1 0.000000 0.0000 
4075 5 1 -17.914590 1.700000 -25.400115 0.000000 0.000000 0.000000 0.000000 -6.723519 1 0.000000 0.0000 
4810 5 1 -18.782232 1.700000 -24.342094 0.000000 0.000000 0.000000 0.000000 -8.478013 1 0.000000 0.0000 
4327 5 1 -16.606648 1.700000 -25.415177 0.000000 0.000000 0.000000 0.000000 -6.821535 1 0.000000 0.0000 
4579 5 1 -15.709701 1.700000 -24.384284 0.000000 0.000000 0.000000 0.000000 -8.474849 1 0.000000 0.0000 
4831 5 1 -14.335652 1.700000 -24.398848 0.000000 0.000000 0.000000 0.000000 -8.451490 1 0.000000 0.0000 
4096 5 1 -13.472110 1.700000 -25.456974 0.000000 0.000000 0.000000 0.000000 -6.708971 1 0.000000 0.0000 
4348 5 1 -12.165273 1.700000 -25.462831 0.000000 0.000000 0.000000 0.000000 -6.787867 1 0.000000 0.0000 
4117 5 1 -9.058980 1.700000 -25.482341 0.000000 0.000000 0.000000 0.000000 -6.683966 1 0.000000 0.0000 
4600 5 1 -11.289661 1.700000 -24.416136 0.000000 0.000000 0.000000 0.000000 -8.496020 1 0.000000 0.0000 
4852 5 1 -9.918481 1.700000 -24.422649 0.000000 0.000000 0.000000 0.000000 -8.448233 1 0.000000 0.0000 
4369 5 1 -7.752638 1.700000 -25.484676 0.000000 0.000000 0.000000 0.000000 -6.740527 1 0.000000 0.0000 
4621 5 1 -6.887890 1.700000 -24.430051 0.000000 0.000000 0.000000 0.000000 -8.486230 1 0.000000 0.0000 
4138 5 1 -4.660695 1.700000 -25.493197 0.000000 0.000000 0.000000 0.000000 -6.705705 1 0.000000 0.0000 
4873 5 1 -5.518231 1.700000 -24.432794 0.000000 0.000000 0.000000 0.000000 -8.482895 1 0.000000 0.0000 
4390 5 1 -3.354582 1.700000 -25.493991 0.000000 0.000000 0.000000 0.000000 -6.689074 1 0.000000 0.0000 
4642 5 1 -2.495161 1.700000 -24.435427 0.000000 0.000000 0.000000 0.000000 -8.452983 1 0.000000 0.0000 
4159 5 1 -0.268190 1.700000 -25.495794 0.000000 0.000000 0.000000 0.000000 -6.687925 1 0.000000 0.0000 
4411 5 1 1.037880 1.700000 -25.495721 0.000000 0.000000 0.000000 0.000000 -6.686656 1 0.000000 0.0000 
4894 5 1 -1.126104 1.700000 -24.436024 0.000000 0.000000 0.000000 0.000000 -8.476379 1 0.000000 0.0000 
4663 5 1 1.895488 1.700000 -24.435609 0.000000 0.000000 0.000000 0.000000 -8.470098 1 0.000000 0.0000 
4915 5 1 3.264731 1.700000 -24.434341 0.000000 0.000000 0.000000 0.000000 -8.477913 1 0.000000 0.0000 
4180 5 1 4.125973 1.700000 -25.491553 0.000000 0.000000 0.000000 0.000000 -6.719025 1 0.000000 0.0000 
4432 5 1 5.432171 1.700000 -25.490381 0.000000 0.000000 0.000000 0.000000 -6.716335 1 0.000000 0.0000 
4684 5 1 6.290527 1.700000 -24.430306 0.000000 0.000000 0.000000 0.000000 -8.451275 1 0.000000 0.0000 
4201 5 1 8.529562 1.700000 -25.477993 0.000000 0.000000 0.000000 0.000000 -6.721230 1 0.000000 0.0000 
4936 5 1 7.660770 1.700000 -24.426294 0.000000 0.000000 0.000000 0.000000 -8.453859 1 0.000000 0.0000 
4453 5 1 9.836094 1.700000 -25.474459 0.000000 0.000000 0.000000 0.000000 -6.689850 1 0.000000 0.0000 
4705 5 1 10.697261 1.700000 -24.415467 0.000000 0.000000 0.000000 0.000000 -8.487613 1 0.000000 0.0000 
4222 5 1 12.952821 1.700000 -25.447177 0.000000 0.000000 0.000000 0.000000 -6.731784 1 0.000000 0.0000 
4957 5 1 12.069523 1.700000 -24.406136 0.000000 0.000000 0.000000 0.000000 -8.418898 1 0.000000 0.0000 
4474 5 1 14.260013 1.700000 -25.438084 0.000000 0.000000 0.000000 0.000000 -6.745149 1 0.000000 0.0000 
4726 5 1 15.125497 1.700000 -24.380399 0.000000 0.000000 0.000000 0.000000 -8.495905 1 0.000000 0.0000 
4978 5 1 16.501274 1.700000 -24.359183 0.000000 0.000000 0.000000 0.000000 -8.478790 1 0.000000 0.0000 
4243 5 1 17.412623 1.700000 -25.379104 0.000000 0.000000 0.000000 0.000000 -6.851739 1 0.000000 0.0000 
4495 5 1 18.721230 1.700000 -25.354090 0.000000 0.000000 0.000000 0.000000 -6.765772 1 0.000000 0.0000 
4264 5 1 21.940923 1.700000 -25.193810 0.000000 0.000000 0.000000 0.000000 -6.928986 1 0.000000 0.0000 
4516 5 1 23.243791 1.700000 -25.117655 0.000000 0.000000 0.000000 0.000000 -6.852137 1 0.000000 0.0000 
3025 4 1 -25.100499 5.100000 -26.011719 0.000000 0.000000 0.000000 0.000000 -4.587574 1 0.000000 0.0000 
3277 4 1 -24.031285 5.100000 -25.267206 0.000000 0.000000 0.000000 0.000000 -8.177560 1 0.000000 0.0000 
3046 4 1 -20.996747 5.100000 -25.236021 0.000000 0.000000 0.000000 0.000000 -6.784300 1 0.000000 0.0000 
3298 4 1 -19.688871 5.100000 -25.292042 0.000000 0.000000 0.000000 0.000000 -6.854371 1 0.000000 0.0000 
3550 4 1 -18.740222 5.100000 -24.304154 0.000000 0.000000 0.000000 0.000000 -8.525518 1 0.000000 0.0000 
3802 4 1 -17.362232 5.100000 -24.342094 0.000000 0.000000 0.000000 0.000000 -8.393494 1 0.000000 0.0000 
3319 4 1 -15.186648 5.100000 -25.415177 0.000000 0.000000 0.000000 0.000000 -6.790748 1 0.000000 0.0000 
3067 4 1 -16.494590 5.100000 -25.400115 0.000000 0.000000 0.000000 0.000000 -6.739538 1 0.000000 0.0000 
3571 4 1 -14.289701 5.100000 -24.384284 0.000000 0.000000 0.000000 0.000000 -8.478258 1 0.000000 0.0000 
3088 4 1 -12.052110 5.100000 -25.456974 0.000000 0.000000 0.000000 0.000000 -6.758058 1 0.000000 0.0000 
3823 4 1 -12.915652 5.100000 -24.398848 0.000000 0.000000 0.000000 0.000000 -8.512828 1 0.000000 0.0000 
3340 4 1 -10.745273 5.100000 -25.462831 0.000000 0.000000 0.000000 0.000000 -6.682570 1 0.000000 0.0000 
3592 4 1 -9.869661 5.100000 -24.416136 0.000000 0.000000 0.000000 0.000000 -8.441908 1 0.000000 0.0000 
3109 4 1 -7.638980 5.100000 -25.482341 0.000000 0.000000 0.000000 0.000000 -6.739195 1 0.000000 0.0000 
3844 4 1 -8.498481 5.100000 -24.422649 0.000000 0.000000 0.000000 0.000000 -8.485215 1 0.000000 0.0000 
3361 4 1 -6.332638 5.100000 -25.484676 0.000000 0.000000 0.000000 0.000000 -6.686239 1 0.000000 0.0000 
3613 4 1 -5.467890 5.100000 -24.430051 0.000000 0.000000 0.000000 0.000000 -8.452108 1 0.000000 0.0000 
3865 4 1 -4.098231 5.100000 -24.432794 0.000000 0.000000 0.000000 0.000000 -8.473693 1 0.000000 0.0000 
3130 4 1 -3.240695 5.100000 -25.493197 0.000000 0.000000 0.000000 0.000000 -6.712866 1 0.000000 0.0000 
3382 4 1 -1.934582 5.100000 -25.493991 0.000000 0.000000 0.000000 0.000000 -6.685024 1 0.000000 0.0000 
3151 4 1 1.151810 5.100000 -25.495794 0.000000 0.000000 0.000000 0.000000 -6.688129 1 0.000000 0.0000 
3634 4 1 -1.075161 5.100000 -24.435427 0.000000 0.000000 0.000000 0.000000 -8.467501 1 0.000000 0.0000 
3886 4 1 0.293896 5.100000 -24.436024 0.000000 0.000000 0.000000 0.000000 -8.480651 1 0.000000 0.0000 
3403 4 1 2.457880 5.100000 -25.495721 0.000000 0.000000 0.000000 0.000000 -6.676288 1 0.000000 0.0000 
3655 4 1 3.315488 5.100000 -24.435609 0.000000 0.000000 0.000000 0.000000 -8.382341 1 0.000000 0.0000 
3172 4 1 5.545973 5.100000 -25.491553 0.000000 0.000000 0.000000 0.000000 -6.801395 1 0.000000 0.0000 
3907 4 1 4.684731 5.100000 -24.434341 0.000000 0.000000 0.000000 0.000000 -8.487579 1 0.000000 0.0000 
3424 4 1 6.852171 5.100000 -25.490381 0.000000 0.000000 0.000000 0.000000 -6.633953 1 0.000000 0.0000 
3676 4 1 7.710527 5.100000 -24.430306 0.000000 0.000000 0.000000 0.000000 -8.372403 1 0.000000 0.0000 
3193 4 1 9.949562 5.100000 -25.477993 0.000000 0.000000 0.000000 0.000000 -6.764729 1 0.000000 0.0000 
3445 4 1 11.256094 5.100000 -25.474459 0.000000 0.000000 0.000000 0.000000 -6.658540 1 0.000000 0.0000 