ITEM: TIMESTEP
0
ITEM: NUMBER OF ATOMS
10082
ITEM: BOX BOUNDS ff mm ff
-27 27
-17 27
-27 27
ITEM: ATOMS id mol type x y z vx vy vz c_atom_ke c_atom_pe c_atom_CN c_atom_dr[4] c_atom_centro 
9073 10 1 -25.100499 -15.300000 -26.011719 0.000000 0.000000 0.000000 0.000000 -4.587574 1 0.000000 0.0000 
9325 10 1 -24.031285 -15.300000 -25.267206 0.000000 0.000000 0.000000 0.000000 -8.177569 1 0.000000 0.0000 
9094 10 1 -20.996747 -15.300000 -25.236021 0.000000 0.000000 0.000000 0.000000 -6.790925 1 0.000000 0.0000 
9346 10 1 -19.688871 -15.300000 -25.292042 0.000000 0.000000 0.000000 0.000000 -6.838991 1 0.000000 0.0000 
9598 10 1 -18.740222 -15.300000 -24.304154 0.000000 0.000000 0.000000 0.000000 -8.480295 1 0.000000 0.0000 
9850 10 1 -17.362232 -15.300000 -24.342094 0.000000 0.000000 0.000000 0.000000 -8.570284 1 0.000000 0.0000 
9367 10 1 -15.186648 -15.300000 -25.415177 0.000000 0.000000 0.000000 0.000000 -6.778102 1 0.000000 0.0000 
9115 10 1 -16.494590 -15.300000 -25.400115 0.000000 0.000000 0.000000 0.000000 -6.769219 1 0.000000 0.0000 
9619 10 1 -14.289701 -15.300000 -24.384284 0.000000 0.000000 0.000000 0.000000 -8.436903 1 0.000000 0.0000 
9136 10 1 -12.052110 -15.300000 -25.456974 0.000000 0.000000 0.000000 0.000000 -6.744812 1 0.000000 0.0000 
9871 10 1 -12.915652 -15.300000 -24.398848 0.000000 0.000000 0.000000 0.000000 -8.451717 1 0.000000 0.0000 
9388 10 1 -10.745273 -15.300000 -25.462831 0.000000 0.000000 0.000000 0.000000 -6.775291 1 0.000000 0.0000 
9640 10 1 -9.869661 -15.300000 -24.416136 0.000000 0.000000 0.000000 0.000000 -8.501395 1 0.000000 0.0000 
9157 10 1 -7.638980 -15.300000 -25.482341 0.000000 0.000000 0.000000 0.000000 -6.721383 1 0.000000 0.0000 
9892 10 1 -8.498481 -15.300000 -24.422649 0.000000 0.000000 0.000000 0.000000 -8.428731 1 0.000000 0.0000 
9409 10 1 -6.332638 -15.300000 -25.484676 0.000000 0.000000 0.000000 0.000000 -6.730562 1 0.000000 0.0000 
9661 10 1 -5.467890 -15.300000 -24.430051 0.000000 0.000000 0.000000 0.000000 -8.437572 1 0.000000 0.0000 
9913 10 1 -4.098231 -15.300000 -24.432794 0.000000 0.000000 0.000000 0.000000 -8.499905 1 0.000000 0.0000 
9178 10 1 -3.240695 -15.300000 -25.493197 0.000000 0.000000 0.000000 0.000000 -6.669057 1 0.000000 0.0000 
9430 10 1 -1.934582 -15.300000 -25.493991 0.000000 0.000000 0.000000 0.000000 -6.728768 1 0.000000 0.0000 
9199 10 1 1.151810 -15.300000 -25.495794 0.000000 0.000000 0.000000 0.000000 -6.701447 1 0.000000 0.0000 
9682 10 1 -1.075161 -15.300000 -24.435427 0.000000 0.000000 0.000000 0.000000 -8.420696 1 0.000000 0.0000 
9934 10 1 0.293896 -15.300000 -24.436024 0.000000 0.000000 0.000000 0.000000 -8.453562 1 0.000000 0.0000 
9451 10 1 2.457880 -15.300000 -25.495721 0.000000 0.000000 0.000000 0.000000 -6.716794 1 0.000000 0.0000 
9703 10 1 3.315488 -15.300000 -24.435609 0.000000 0.000000 0.000000 0.000000 -8.416468 1 0.000000 0.0000 
9220 10 1 5.545973 -15.300000 -25.491553 0.000000 0.000000 0.000000 0.000000 -6.727341 1 0.000000 0.0000 
9955 10 1 4.684731 -15.300000 -24.434341 0.000000 0.000000 0.000000 0.000000 -8.463496 1 0.000000 0.0000 
9472 10 1 6.852171 -15.300000 -25.490381 0.000000 0.000000 0.000000 0.000000 -6.682397 1 0.000000 0.0000 
9724 10 1 7.710527 -15.300000 -24.430306 0.000000 0.000000 0.000000 0.000000 -8.421063 1 0.000000 0.0000 
9241 10 1 9.949562 -15.300000 -25.477993 0.000000 0.000000 0.000000 0.000000 -6.719996 1 0.000000 0.0000 
9493 10 1 11.256094 -15.300000 -25.474459 0.000000 0.000000 0.000000 0.000000 -6.701851 1 0.000000 0.0000 
9976 10 1 9.080770 -15.300000 -24.426294 0.000000 0.000000 0.000000 0.000000 -8.475024 1 0.000000 0.0000 
9745 10 1 12.117261 -15.300000 -24.415467 0.000000 0.000000 0.000000 0.000000 -8.471959 1 0.000000 0.0000 
9997 10 1 13.489523 -15.300000 -24.406136 0.000000 0.000000 0.000000 0.000000 -8.511909 1 0.000000 0.0000 
9262 10 1 14.372821 -15.300000 -25.447177 0.000000 0.000000 0.000000 0.000000 -6.796626 1 0.000000 0.0000 
9514 10 1 15.680013 -15.300000 -25.438084 0.000000 0.000000 0.000000 0.000000 -6.702259 1 0.000000 0.0000 
9766 10 1 16.545497 -15.300000 -24.380399 0.000000 0.000000 0.000000 0.000000 -8.445788 1 0.000000 0.0000 
9283 10 1 18.832623 -15.300000 -25.379104 0.000000 0.000000 0.000000 0.000000 -6.816648 1 0.000000 0.0000 
10018 10 1 17.921274 -15.300000 -24.359183 0.000000 0.000000 0.000000 0.000000 -8.520150 1 0.000000 0.0000 
9535 10 1 20.141230 -15.300000 -25.354090 0.000000 0.000000 0.000000 0.000000 -6.747984 1 0.000000 0.0000 
9304 10 1 23.360923 -15.300000 -25.193810 0.000000 0.000000 0.000000 0.000000 -6.896340 1 0.000000 0.0000 
9556 10 1 24.663791 -15.300000 -25.117655 0.000000 0.000000 0.000000 0.000000 -6.847821 1 0.000000 0.0000 
8065 9 1 -26.520499 -11.900000 -26.011719 0.000000 0.000000 0.000000 0.000000 -4.587574 1 0.000000 0.0000 
8317 9 1 -25.451285 -11.900000 -25.267206 0.000000 0.000000 0.000000 0.000000 -8.197586 1 0.000000 0.0000 
8086 9 1 -22.416747 -11.900000 -25.236021 0.000000 0.000000 0.000000 0.000000 -6.811512 1 0.000000 0.0000 
8338 9 1 -21.108871 -11.900000 -25.292042 0.000000 0.000000 0.000000 0.000000 -6.817444 1 0.000000 0.0000 
8590 9 1 -20.160222 -11.900000 -24.304154 0.000000 0.000000 0.000000 0.000000 -8.521071 1 0.000000 0.0000 
8107 9 1 -17.914590 -11.900000 -25.400115 0.000000 0.000000 0.000000 0.000000 -6.713704 1 0.000000 0.0000 
8842 9 1 -18.782232 -11.900000 -24.342094 0.000000 0.000000 0.000000 0.000000 -8.434027 1 0.000000 0.0000 
8359 9 1 -16.606648 -11.900000 -25.415177 0.000000 0.000000 0.000000 0.000000 -6.798675 1 0.000000 0.0000 
8611 9 1 -15.709701 -11.900000 -24.384284 0.000000 0.000000 0.000000 0.000000 -8.564504 1 0.000000 0.0000 
8863 9 1 -14.335652 -11.900000 -24.398848 0.000000 0.000000 0.000000 0.000000 -8.469764 1 0.000000 0.0000 
8128 9 1 -13.472110 -11.900000 -25.456974 0.000000 0.000000 0.000000 0.000000 -6.705610 1 0.000000 0.0000 
8380 9 1 -12.165273 -11.900000 -25.462831 0.000000 0.000000 0.000000 0.000000 -6.744303 1 0.000000 0.0000 
8149 9 1 -9.058980 -11.900000 -25.482341 0.000000 0.000000 0.000000 0.000000 -6.675723 1 0.000000 0.0000 
8632 9 1 -11.289661 -11.900000 -24.416136 0.000000 0.000000 0.000000 0.000000 -8.452334 1 0.000000 0.0000 
8884 9 1 -9.918481 -11.900000 -24.422649 0.000000 0.000000 0.000000 0.000000 -8.460520 1 0.000000 0.0000 
8401 9 1 -7.752638 -11.900000 -25.484676 0.000000 0.000000 0.000000 0.000000 -6.738448 1 0.000000 0.0000 
8653 9 1 -6.887890 -11.900000 -24.430051 0.000000 0.000000 0.000000 0.000000 -8.417904 1 0.000000 0.0000 
8170 9 1 -4.660695 -11.900000 -25.493197 0.000000 0.000000 0.000000 0.000000 -6.729817 1 0.000000 0.0000 
8905 9 1 -5.518231 -11.900000 -24.432794 0.000000 0.000000 0.000000 0.000000 -8.433339 1 0.000000 0.0000 
8422 9 1 -3.354582 -11.900000 -25.493991 0.000000 0.000000 0.000000 0.000000 -6.733112 1 0.000000 0.0000 
8674 9 1 -2.495161 -11.900000 -24.435427 0.000000 0.000000 0.000000 0.000000 -8.467872 1 0.000000 0.0000 
8191 9 1 -0.268190 -11.900000 -25.495794 0.000000 0.000000 0.000000 0.000000 -6.653680 1 0.000000 0.0000 
8443 9 1 1.037880 -11.900000 -25.495721 0.000000 0.000000 0.000000 0.000000 -6.709596 1 0.000000 0.0000 
8926 9 1 -1.126104 -11.900000 -24.436024 0.000000 0.000000 0.000000 0.000000 -8.449065 1 0.000000 0.0000 
8695 9 1 1.895488 -11.900000 -24.435609 0.000000 0.000000 0.000000 0.000000 -8.489553 1 0.000000 0.0000 
8947 9 1 3.264731 -11.900000 -24.434341 0.000000 0.000000 0.000000 0.000000 -8.438402 1 0.000000 0.0000 
8212 9 1 4.125973 -11.900000 -25.491553 0.000000 0.000000 0.000000 0.000000 -6.663739 1 0.000000 0.0000 
8464 9 1 5.432171 -11.900000 -25.490381 0.000000 0.000000 0.000000 0.000000 -6.716409 1 0.000000 0.0000 
8716 9 1 6.290527 -11.900000 -24.430306 0.000000 0.000000 0.000000 0.000000 -8.471600 1 0.000000 0.0000 
8233 9 1 8.529562 -11.900000 -25.477993 0.000000 0.000000 0.000000 0.000000 -6.727578 1 0.000000 0.0000 
8968 9 1 7.660770 -11.900000 -24.426294 0.000000 0.000000 0.000000 0.000000 -8.448663 1 0.000000 0.0000 
8485 9 1 9.836094 -11.900000 -25.474459 0.000000 0.000000 0.000000 0.000000 -6.744172 1 0.000000 0.0000 
8737 9 1 10.697261 -11.900000 -24.415467 0.000000 0.000000 0.000000 0.000000 -8.431818 1 0.000000 0.0000 
8254 9 1 12.952821 -11.900000 -25.447177 0.000000 0.000000 0.000000 0.000000 -6.778306 1 0.000000 0.0000 
8989 9 1 12.069523 -11.900000 -24.406136 0.000000 0.000000 0.000000 0.000000 -8.477189 1 0.000000 0.0000 
8506 9 1 14.260013 -11.900000 -25.438084 0.000000 0.000000 0.000000 0.000000 -6.709932 1 0.000000 0.0000 
8758 9 1 15.125497 -11.900000 -24.380399 0.000000 0.000000 0.000000 0.000000 -8.372541 1 0.000000 0.0000 
9010 9 1 16.501274 -11.900000 -24.359183 0.000000 0.000000 0.000000 0.000000 -8.549943 1 0.000000 0.0000 
8275 9 1 17.412623 -11.900000 -25.379104 0.000000 0.000000 0.000000 0.000000 -6.860023 1 0.000000 0.0000 
8527 9 1 18.721230 -11.900000 -25.354090 0.000000 0.000000 0.000000 0.000000 -6.783256 1 0.000000 0.0000 
8296 9 1 21.940923 -11.900000 -25.193810 0.000000 0.000000 0.000000 0.000000 -6.934381 1 0.000000 0.0000 
8548 9 1 23.243791 -11.900000 -25.117655 0.000000 0.000000 0.000000 0.000000 -6.823858 1 0.000000 0.0000 
7057 8 1 -25.100499 -8.500000 -26.011719 0.000000 0.000000 0.000000 0.000000 -4.587574 1 0.000000 0.0000 
7309 8 1 -24.031285 -8.500000 -25.267206 0.000000 0.000000 0.000000 0.000000 -8.176231 1 0.000000 0.0000 
7078 8 1 -20.996747 -8.500000 -25.236021 0.000000 0.000000 0.000000 0.000000 -6.813361 1 0.000000 0.0000 
7330 8 1 -19.688871 -8.500000 -25.292042 0.000000 0.000000 0.000000 0.000000 -6.884508 1 0.000000 0.0000 
7582 8 1 -18.740222 -8.500000 -24.304154 0.000000 0.000000 0.000000 0.000000 -8.613755 1 0.000000 0.0000 
7834 8 1 -17.362232 -8.500000 -24.342094 0.000000 0.000000 0.000000 0.000000 -8.411155 1 0.000000 0.0000 
7351 8 1 -15.186648 -8.500000 -25.415177 0.000000 0.000000 0.000000 0.000000 -6.848757 1 0.000000 0.0000 
7099 8 1 -16.494590 -8.500000 -25.400115 0.000000 0.000000 0.000000 0.000000 -6.735269 1 0.000000 0.0000 
7603 8 1 -14.289701 -8.500000 -24.384284 0.000000 0.000000 0.000000 0.000000 -8.490877 1 0.000000 0.0000 
7120 8 1 -12.052110 -8.500000 -25.456974 0.000000 0.000000 0.000000 0.000000 -6.797582 1 0.000000 0.0000 
7855 8 1 -12.915652 -8.500000 -24.398848 0.000000 0.000000 0.000000 0.000000 -8.451782 1 0.000000 0.0000 
7372 8 1 -10.745273 -8.500000 -25.462831 0.000000 0.000000 0.000000 0.000000 -6.749382 1 0.000000 0.0000 
7624 8 1 -9.869661 -8.500000 -24.416136 0.000000 0.000000 0.000000 0.000000 -8.532127 1 0.000000 0.0000 
7141 8 1 -7.638980 -8.500000 -25.482341 0.000000 0.000000 0.000000 0.000000 -6.700233 1 0.000000 0.0000 
7876 8 1 -8.498481 -8.500000 -24.422649 0.000000 0.000000 0.000000 0.000000 -8.483303 1 0.000000 0.0000 
7393 8 1 -6.332638 -8.500000 -25.484676 0.000000 0.000000 0.000000 0.000000 -6.757058 1 0.000000 0.0000 
7645 8 1 -5.467890 -8.500000 -24.430051 0.000000 0.000000 0.000000 0.000000 -8.527263 1 0.000000 0.0000 
7897 8 1 -4.098231 -8.500000 -24.432794 0.000000 0.000000 0.000000 0.000000 -8.442987 1 0.000000 0.0000 
7162 8 1 -3.240695 -8.500000 -25.493197 0.000000 0.000000 0.000000 0.000000 -6.693102 1 0.000000 0.0000 
7414 8 1 -1.934582 -8.500000 -25.493991 0.000000 0.000000 0.000000 0.000000 -6.683362 1 0.000000 0.0000 
7183 8 1 1.151810 -8.500000 -25.495794 0.000000 0.000000 0.000000 0.000000 -6.695701 1 0.000000 0.0000 
7666 8 1 -1.075161 -8.500000 -24.435427 0.000000 0.000000 0.000000 0.000000 -8.462900 1 0.000000 0.0000 
7918 8 1 0.293896 -8.500000 -24.436024 0.000000 0.000000 0.000000 0.000000 -8.497213 1 0.000000 0.0000 
7435 8 1 2.457880 -8.500000 -25.495721 0.000000 0.000000 0.000000 0.000000 -6.738488 1 0.000000 0.0000 
7687 8 1 3.315488 -8.500000 -24.435609 0.000000 0.000000 0.000000 0.000000 -8.478175 1 0.000000 0.0000 
7204 8 1 5.545973 -8.500000 -25.491553 0.000000 0.000000 0.000000 0.000000 -6.714481 1 0.000000 0.0000 
7939 8 1 4.684731 -8.500000 -24.434341 0.000000 0.000000 0.000000 0.000000 -8.482758 1 0.000000 0.0000 
7456 8 1 6.852171 -8.500000 -25.490381 0.000000 0.000000 0.000000 0.000000 -6.698489 1 0.000000 0.0000 
7708 8 1 7.710527 -8.500000 -24.430306 0.000000 0.000000 0.000000 0.000000 -8.449997 1 0.000000 0.0000 
7225 8 1 9.949562 -8.500000 -25.477993 0.000000 0.000000 0.000000 0.000000 -6.685798 1 0.000000 0.0000 
7477 8 1 11.256094 -8.500000 -25.474459 0.000000 0.000000 0.000000 0.000000 -6.679355 1 0.000000 0.0000 
7960 8 1 9.080770 -8.500000 -24.426294 0.000000 0.000000 0.000000 0.000000 -8.436661 1 0.000000 0.0000 
7729 8 1 12.117261 -8.500000 -24.415467 0.000000 0.000000 0.000000 0.000000 -8.473017 1 0.000000 0.0000 
7981 8 1 13.489523 -8.500000 -24.406136 0.000000 0.000000 0.000000 0.000000 -8.511785 1 0.000000 0.0000 
7246 8 1 14.372821 -8.500000 -25.447177 0.000000 0.000000 0.000000 0.000000 -6.747193 1 0.000000 0.0000 
7498 8 1 15.680013 -8.500000 -25.438084 0.000000 0.000000 0.000000 0.000000 -6.717399 1 0.000000 0.0000 
7750 8 1 16.545497 -8.500000 -24.380399 0.000000 0.000000 0.000000 0.000000 -8.518049 1 0.000000 0.0000 
7267 8 1 18.832623 -8.500000 -25.379104 0.000000 0.000000 0.000000 0.000000 -6.801194 1 0.000000 0.0000 
8002 8 1 17.921274 -8.500000 -24.359183 0.000000 0.000000 0.000000 0.000000 -8.498610 1 0.000000 0.0000 
7519 8 1 20.141230 -8.500000 -25.354090 0.000000 0.000000 0.000000 0.000000 -6.761083 1 0.000000 0.0000 
7288 8 1 23.360923 -8.500000 -25.193810 0.000000 0.000000 0.000000 0.000000 -6.925943 1 0.000000 0.0000 
7540 8 1 24.663791 -8.500000 -25.117655 0.000000 0.000000 0.000000 0.000000 -6.847821 1 0.000000 0.0000 
6049 7 1 -26.520499 -5.100000 -26.011719 0.000000 0.000000 0.000000 0.000000 -4.587574 1 0.000000 0.0000 
6301 7 1 -25.451285 -5.100000 -25.267206 0.000000 0.000000 0.000000 0.000000 -8.197586 1 0.000000 0.0000 
6070 7 1 -22.416747 -5.100000 -25.236021 0.000000 0.000000 0.000000 0.000000 -6.790024 1 0.000000 0.0000 
6322 7 1 -21.108871 -5.100000 -25.292042 0.000000 0.000000 0.000000 0.000000 -6.846968 1 0.000000 0.0000 
6574 7 1 -20.160222 -5.100000 -24.304154 0.000000 0.000000 0.000000 0.000000 -8.500170 1 0.000000 0.0000 
6091 7 1 -17.914590 -5.100000 -25.400115 0.000000 0.000000 0.000000 0.000000 -6.748477 1 0.000000 0.0000 
6826 7 1 -18.782232 -5.100000 -24.342094 0.000000 0.000000 0.000000 0.000000 -8.491716 1 0.000000 0.0000 
6343 7 1 -16.606648 -5.100000 -25.415177 0.000000 0.000000 0.000000 0.000000 -6.788175 1 0.000000 0.0000 
6595 7 1 -15.709701 -5.100000 -24.384284 0.000000 0.000000 0.000000 0.000000 -8.535020 1 0.000000 0.0000 
6847 7 1 -14.335652 -5.100000 -24.398848 0.000000 0.000000 0.000000 0.000000 -8.477055 1 0.000000 0.0000 
6112 7 1 -13.472110 -5.100000 -25.456974 0.000000 0.000000 0.000000 0.000000 -6.711154 1 0.000000 0.0000 
6364 7 1 -12.165273 -5.100000 -25.462831 0.000000 0.000000 0.000000 0.000000 -6.793979 1 0.000000 0.0000 
6133 7 1 -9.058980 -5.100000 -25.482341 0.000000 0.000000 0.000000 0.000000 -6.721105 1 0.000000 0.0000 
6616 7 1 -11.289661 -5.100000 -24.416136 0.000000 0.000000 0.000000 0.000000 -8.546451 1 0.000000 0.0000 
6868 7 1 -9.918481 -5.100000 -24.422649 0.000000 0.000000 0.000000 0.000000 -8.431935 1 0.000000 0.0000 
6385 7 1 -7.752638 -5.100000 -25.484676 0.000000 0.000000 0.000000 0.000000 -6.718261 1 0.000000 0.0000 
6637 7 1 -6.887890 -5.100000 -24.430051 0.000000 0.000000 0.000000 0.000000 -8.471854 1 0.000000 0.0000 
6154 7 1 -4.660695 -5.100000 -25.493197 0.000000 0.000000 0.000000 0.000000 -6.704430 1 0.000000 0.0000 
6889 7 1 -5.518231 -5.100000 -24.432794 0.000000 0.000000 0.000000 0.000000 -8.517284 1 0.000000 0.0000 
6406 7 1 -3.354582 -5.100000 -25.493991 0.000000 0.000000 0.000000 0.000000 -6.678449 1 0.000000 0.0000 
6658 7 1 -2.495161 -5.100000 -24.435427 0.000000 0.000000 0.000000 0.000000 -8.455718 1 0.000000 0.0000 
6175 7 1 -0.268190 -5.100000 -25.495794 0.000000 0.000000 0.000000 0.000000 -6.674387 1 0.000000 0.0000 
6427 7 1 1.037880 -5.100000 -25.495721 0.000000 0.000000 0.000000 0.000000 -6.718336 1 0.000000 0.0000 
6910 7 1 -1.126104 -5.100000 -24.436024 0.000000 0.000000 0.000000 0.000000 -8.403246 1 0.000000 0.0000 
6679 7 1 1.895488 -5.100000 -24.435609 0.000000 0.000000 0.000000 0.000000 -8.484928 1 0.000000 0.0000 
6931 7 1 3.264731 -5.100000 -24.434341 0.000000 0.000000 0.000000 0.000000 -8.453747 1 0.000000 0.0000 
6196 7 1 4.125973 -5.100000 -25.491553 0.000000 0.000000 0.000000 0.000000 -6.689350 1 0.000000 0.0000 
6448 7 1 5.432171 -5.100000 -25.490381 0.000000 0.000000 0.000000 0.000000 -6.757240 1 0.000000 0.0000 
6700 7 1 6.290527 -5.100000 -24.430306 0.000000 0.000000 0.000000 0.000000 -8.579825 1 0.000000 0.0000 
6217 7 1 8.529562 -5.100000 -25.477993 0.000000 0.000000 0.000000 0.000000 -6.684105 1 0.000000 0.0000 
6952 7 1 7.660770 -5.100000 -24.426294 0.000000 0.000000 0.000000 0.000000 -8.439643 1 0.000000 0.0000 
6469 7 1 9.836094 -5.100000 -25.474459 0.000000 0.000000 0.000000 0.000000 -6.711813 1 0.000000 0.0000 
6721 7 1 10.697261 -5.100000 -24.415467 0.000000 0.000000 0.000000 0.000000 -8.466826 1 0.000000 0.0000 
6238 7 1 12.952821 -5.100000 -25.447177 0.000000 0.000000 0.000000 0.000000 -6.785006 1 0.000000 0.0000 
6973 7 1 12.069523 -5.100000 -24.406136 0.000000 0.000000 0.000000 0.000000 -8.427039 1 0.000000 0.0000 
6490 7 1 14.260013 -5.100000 -25.438084 0.000000 0.000000 0.000000 0.000000 -6.708172 1 0.000000 0.0000 
6742 7 1 15.125497 -5.100000 -24.380399 0.000000 0.000000 0.000000 0.000000 -8.440579 1 0.000000 0.0000 
6994 7 1 16.501274 -5.100000 -24.359183 0.000000 0.000000 0.000000 0.000000 -8.556018 1 0.000000 0.0000 
6259 7 1 17.412623 -5.100000 -25.379104 0.000000 0.000000 0.000000 0.000000 -6.826286 1 0.000000 0.0000 
6511 7 1 18.721230 -5.100000 -25.354090 0.000000 0.000000 0.000000 0.000000 -6.732234 1 0.000000 0.0000 
6280 7 1 21.940923 -5.100000 -25.193810 0.000000 0.000000 0.000000 0.000000 -6.901259 1 0.000000 0.0000 
6532 7 1 23.243791 -5.100000 -25.117655 0.000000 0.000000 0.000000 0.000000 -6.841327 1 0.000000 0.0000 
5041 6 1 -25.100499 -1.700000 -26.011719 0.000000 0.000000 0.000000 0.000000 -4.587574 1 0.000000 0.0000 
5293 6 1 -24.031285 -1.700000 -25.267206 0.000000 0.000000 0.000000 0.000000 -8.180772 1 0.000000 0.0000 
5062 6 1 -20.996747 -1.700000 -25.236021 0.000000 0.000000 0.000000 0.000000 -6.794090 1 0.000000 0.0000 
5314 6 1 -19.688871 -1.700000 -25.292042 0.000000 0.000000 0.000000 0.000000 -6.889700 1 0.000000 0.0000 
5566 6 1 -18.740222 -1.700000 -24.304154 0.000000 0.000000 0.000000 0.000000 -8.518433 1 0.000000 0.0000 
5818 6 1 -17.362232 -1.700000 -24.342094 0.000000 0.000000 0.000000 0.000000 -8.483232 1 0.000000 0.0000 
5335 6 1 -15.186648 -1.700000 -25.415177 0.000000 0.000000 0.000000 0.000000 -6.770916 1 0.000000 0.0000 
5083 6 1 -16.494590 -1.700000 -25.400115 0.000000 0.000000 0.000000 0.000000 -6.737577 1 0.000000 0.0000 
5587 6 1 -14.289701 -1.700000 -24.384284 0.000000 0.000000 0.000000 0.000000 -8.501670 1 0.000000 0.0000 
5104 6 1 -12.052110 -1.700000 -25.456974 0.000000 0.000000 0.000000 0.000000 -6.732373 1 0.000000 0.0000 
5839 6 1 -12.915652 -1.700000 -24.398848 0.000000 0.000000 0.000000 0.000000 -8.539158 1 0.000000 0.0000 
5356 6 1 -10.745273 -1.700000 -25.462831 0.000000 0.000000 0.000000 0.000000 -6.739103 1 0.000000 0.0000 
5608 6 1 -9.869661 -1.700000 -24.416136 0.000000 0.000000 0.000000 0.000000 -8.484686 1 0.000000 0.0000 
5125 6 1 -7.638980 -1.700000 -25.482341 0.000000 0.000000 0.000000 0.000000 -6.691436 1 0.000000 0.0000 
5860 6 1 -8.498481 -1.700000 -24.422649 0.000000 0.000000 0.000000 0.000000 -8.456164 1 0.000000 0.0000 
5377 6 1 -6.332638 -1.700000 -25.484676 0.000000 0.000000 0.000000 0.000000 -6.713014 1 0.000000 0.0000 
5629 6 1 -5.467890 -1.700000 -24.430051 0.000000 0.000000 0.000000 0.000000 -8.479316 1 0.000000 0.0000 
5881 6 1 -4.098231 -1.700000 -24.432794 0.000000 0.000000 0.000000 0.000000 -8.435903 1 0.000000 0.0000 
5146 6 1 -3.240695 -1.700000 -25.493197 0.000000 0.000000 0.000000 0.000000 -6.719401 1 0.000000 0.0000 
5398 6 1 -1.934582 -1.700000 -25.493991 0.000000 0.000000 0.000000 0.000000 -6.704839 1 0.000000 0.0000 
5167 6 1 1.151810 -1.700000 -25.495794 0.000000 0.000000 0.000000 0.000000 -6.710064 1 0.000000 0.0000 
5650 6 1 -1.075161 -1.700000 -24.435427 0.000000 0.000000 0.000000 0.000000 -8.462180 1 0.000000 0.0000 
5902 6 1 0.293896 -1.700000 -24.436024 0.000000 0.000000 0.000000 0.000000 -8.452882 1 0.000000 0.0000 
5419 6 1 2.457880 -1.700000 -25.495721 0.000000 0.000000 0.000000 0.000000 -6.686730 1 0.000000 0.0000 
5671 6 1 3.315488 -1.700000 -24.435609 0.000000 0.000000 0.000000 0.000000 -8.543743 1 0.000000 0.0000 
5188 6 1 5.545973 -1.700000 -25.491553 0.000000 0.000000 0.000000 0.000000 -6.658083 1 0.000000 0.0000 
5923 6 1 4.684731 -1.700000 -24.434341 0.000000 0.000000 0.000000 0.000000 -8.451009 1 0.000000 0.0000 
5440 6 1 6.852171 -1.700000 -25.490381 0.000000 0.000000 0.000000 0.000000 -6.737016 1 0.000000 0.0000 
5692 6 1 7.710527 -1.700000 -24.430306 0.000000 0.000000 0.000000 0.000000 -8.451275 1 0.000000 0.0000 
5209 6 1 9.949562 -1.700000 -25.477993 0.000000 0.000000 0.000000 0.000000 -6.748345 1 0.000000 0.0000 
5461 6 1 11.256094 -1.700000 -25.474459 0.000000 0.000000 0.000000 0.000000 -6.742249 1 0.000000 0.0000 
5944 6 1 9.080770 -1.700000 -24.426294 0.000000 0.000000 0.000000 0.000000 -8.461709 1 0.000000 0.0000 
5713 6 1 12.117261 -1.700000 -24.415467 0.000000 0.000000 0.000000 0.000000 -8.499032 1 0.000000 0.0000 
5965 6 1 13.489523 -1.700000 -24.406136 0.000000 0.000000 0.000000 0.000000 -8.414205 1 0.000000 0.0000 
5230 6 1 14.372821 -1.700000 -25.447177 0.000000 0.000000 0.000000 0.000000 -6.777294 1 0.000000 0.0000 
5482 6 1 15.680013 -1.700000 -25.438084 0.000000 0.000000 0.000000 0.000000 -6.702554 1 0.000000 0.0000 
5734 6 1 16.545497 -1.700000 -24.380399 0.000000 0.000000 0.000000 0.000000 -8.555097 1 0.000000 0.0000 
5251 6 1 18.832623 -1.700000 -25.379104 0.000000 0.000000 0.000000 0.000000 -6.787276 1 0.000000 0.0000 
5986 6 1 17.921274 -1.700000 -24.359183 0.000000 0.000000 0.000000 0.000000 -8.495944 1 0.000000 0.0000 
5503 6 1 20.141230 -1.700000 -25.354090 0.000000 0.000000 0.000000 0.000000 -6.779898 1 0.000000 0.0000 
5272 6 1 23.360923 -1.700000 -25.193810 0.000000 0.000000 0.000000 0.000000 -6.913648 1 0.000000 0.0000 
5524 6 1 24.663791 -1.700000 -25.117655 0.000000 0.000000 0.000000 0.000000 -6.847821 1 0.000000 0.0000 
4033 5 1 -26.520499 1.700000 -26.011719 0.000000 0.000000 0.000000 0.000000 -4.587574 1 0.000000 0.0000 
4285 5 1 -25.451285 1.700000 -25.267206 0.000000 0.000000 0.000000 0.000000 -8.197586 1 0.000000 0.0000 
4054 5 1 -22.416747 1.700000 -25.236021 0.000000 0.000000 0.000000 0.000000 -6.791435 1 0.000000 0.0000 
4306 5 1 -21.108871 1.700000 -25.292042 0.000000 0.000000 0.000000 0.000000 -6.858661 1 0.000000 0.0000 
4558 5 1 -20.160222 1.700000 -24.304154 0.000000 0.000000 0.000000 0.000000 -8.448981 1 0.000000 0.0000 
4075 5 1 -17.914590 1.700000 -25.400115 0.000000 0.000000 0.000000 0.000000 -6.739647 1 0.000000 0.0000 
4810 5 1 -18.782232 1.700000 -24.342094 0.000000 0.000000 0.000000 0.000000 -8.495098 1 0.000000 0.0000 
4327 5 1 -16.606648 1.700000 -25.415177 0.000000 0.000000 0.000000 0.000000 -6.806966 1 0.000000 0.0000 
4579 5 1 -15.709701 1.700000 -24.384284 0.000000 0.000000 0.000000 0.000000 -8.446543 1 0.000000 0.0000 
4831 5 1 -14.335652 1.700000 -24.398848 0.000000 0.000000 0.000000 0.000000 -8.500729 1 0.000000 0.0000 
4096 5 1 -13.472110 1.700000 -25.456974 0.000000 0.000000 0.000000 0.000000 -6.749773 1 0.000000 0.0000 
4348 5 1 -12.165273 1.700000 -25.462831 0.000000 0.000000 0.000000 0.000000 -6.727377 1 0.000000 0.0000 
4117 5 1 -9.058980 1.700000 -25.482341 0.000000 0.000000 0.000000 0.000000 -6.749894 1 0.000000 0.0000 
4600 5 1 -11.289661 1.700000 -24.416136 0.000000 0.000000 0.000000 0.000000 -8.465076 1 0.000000 0.0000 
4852 5 1 -9.918481 1.700000 -24.422649 0.000000 0.000000 0.000000 0.000000 -8.486387 1 0.000000 0.0000 
4369 5 1 -7.752638 1.700000 -25.484676 0.000000 0.000000 0.000000 0.000000 -6.684627 1 0.000000 0.0000 
4621 5 1 -6.887890 1.700000 -24.430051 0.000000 0.000000 0.000000 0.000000 -8.480402 1 0.000000 0.0000 
4138 5 1 -4.660695 1.700000 -25.493197 0.000000 0.000000 0.000000 0.000000 -6.672507 1 0.000000 0.0000 
4873 5 1 -5.518231 1.700000 -24.432794 0.000000 0.000000 0.000000 0.000000 -8.520608 1 0.000000 0.0000 
4390 5 1 -3.354582 1.700000 -25.493991 0.000000 0.000000 0.000000 0.000000 -6.725093 1 0.000000 0.0000 
4642 5 1 -2.495161 1.700000 -24.435427 0.000000 0.000000 0.000000 0.000000 -8.484780 1 0.000000 0.0000 
4159 5 1 -0.268190 1.700000 -25.495794 0.000000 0.000000 0.000000 0.000000 -6.688628 1 0.000000 0.0000 
4411 5 1 1.037880 1.700000 -25.495721 0.000000 0.000000 0.000000 0.000000 -6.681794 1 0.000000 0.0000 
4894 5 1 -1.126104 1.700000 -24.436024 0.000000 0.000000 0.000000 0.000000 -8.479591 1 0.000000 0.0000 
4663 5 1 1.895488 1.700000 -24.435609 0.000000 0.000000 0.000000 0.000000 -8.452886 1 0.000000 0.0000 
4915 5 1 3.264731 1.700000 -24.434341 0.000000 0.000000 0.000000 0.000000 -8.416962 1 0.000000 0.0000 
4180 5 1 4.125973 1.700000 -25.491553 0.000000 0.000000 0.000000 0.000000 -6.707572 1 0.000000 0.0000 
4432 5 1 5.432171 1.700000 -25.490381 0.000000 0.000000 0.000000 0.000000 -6.726288 1 0.000000 0.0000 
4684 5 1 6.290527 1.700000 -24.430306 0.000000 0.000000 0.000000 0.000000 -8.459804 1 0.000000 0.0000 
4201 5 1 8.529562 1.700000 -25.477993 0.000000 0.000000 0.000000 0.000000 -6.736146 1 0.000000 0.0000 
4936 5 1 7.660770 1.700000 -24.426294 0.000000 0.000000 0.000000 0.000000 -8.450102 1 0.000000 0.0000 
4453 5 1 9.836094 1.700000 -25.474459 0.000000 0.000000 0.000000 0.000000 -6.761511 1 0.000000 0.0000 
4705 5 1 10.697261 1.700000 -24.415467 0.000000 0.000000 0.000000 0.000000 -8.498538 1 0.000000 0.0000 
4222 5 1 12.952821 1.700000 -25.447177 0.000000 0.000000 0.000000 0.000000 -6.763160 1 0.000000 0.0000 
4957 5 1 12.069523 1.700000 -24.406136 0.000000 0.000000 0.000000 0.000000 -8.430343 1 0.000000 0.0000 
4474 5 1 14.260013 1.700000 -25.438084 0.000000 0.000000 0.000000 0.000000 -6.768955 1 0.000000 0.0000 
4726 5 1 15.125497 1.700000 -24.380399 0.000000 0.000000 0.000000 0.000000 -8.546266 1 0.000000 0.0000 
4978 5 1 16.501274 1.700000 -24.359183 0.000000 0.000000 0.000000 0.000000 -8.411937 1 0.000000 0.0000 
4243 5 1 17.412623 1.700000 -25.379104 0.000000 0.000000 0.000000 0.000000 -6.798031 1 0.000000 0.0000 
4495 5 1 18.721230 1.700000 -25.354090 0.000000 0.000000 0.000000 0.000000 -6.785499 1 0.000000 0.0000 
4264 5 1 21.940923 1.700000 -25.193810 0.000000 0.000000 0.000000 0.000000 -6.904127 1 0.000000 0.0000 
4516 5 1 23.243791 1.700000 -25.117655 0.000000 0.000000 0.000000 0.000000 -6.860485 1 0.000000 0.0000 
3025 4 1 -25.100499 5.100000 -26.011719 0.000000 0.000000 0.000000 0.000000 -4.587574 1 0.000000 0.0000 
3277 4 1 -24.031285 5.100000 -25.267206 0.000000 0.000000 0.000000 0.000000 -8.197889 1 0.000000 0.0000 
3046 4 1 -20.996747 5.100000 -25.236021 0.000000 0.000000 0.000000 0.000000 -6.777035 1 0.000000 0.0000 
3298 4 1 -19.688871 5.100000 -25.292042 0.000000 0.000000 0.000000 0.000000 -6.880447 1 0.000000 0.0000 
3550 4 1 -18.740222 5.100000 -24.304154 0.000000 0.000000 0.000000 0.000000 -8.565432 1 0.000000 0.0000 
3802 4 1 -17.362232 5.100000 -24.342094 0.000000 0.000000 0.000000 0.000000 -8.459143 1 0.000000 0.0000 
3319 4 1 -15.186648 5.100000 -25.415177 0.000000 0.000000 0.000000 0.000000 -6.719021 1 0.000000 0.0000 
3067 4 1 -16.494590 5.100000 -25.400115 0.000000 0.000000 0.000000 0.000000 -6.745438 1 0.000000 0.0000 
3571 4 1 -14.289701 5.100000 -24.384284 0.000000 0.000000 0.000000 0.000000 -8.529037 1 0.000000 0.0000 
3088 4 1 -12.052110 5.100000 -25.456974 0.000000 0.000000 0.000000 0.000000 -6.698391 1 0.000000 0.0000 
3823 4 1 -12.915652 5.100000 -24.398848 0.000000 0.000000 0.000000 0.000000 -8.486443 1 0.000000 0.0000 
3340 4 1 -10.745273 5.100000 -25.462831 0.000000 0.000000 0.000000 0.000000 -6.784513 1 0.000000 0.0000 
3592 4 1 -9.869661 5.100000 -24.416136 0.000000 0.000000 0.000000 0.000000 -8.413574 1 0.000000 0.0000 
3109 4 1 -7.638980 5.100000 -25.482341 0.000000 0.000000 0.000000 0.000000 -6.749894 1 0.000000 0.0000 
3844 4 1 -8.498481 5.100000 -24.422649 0.000000 0.000000 0.000000 0.000000 -8.488122 1 0.000000 0.0000 
3361 4 1 -6.332638 5.100000 -25.484676 0.000000 0.000000 0.000000 0.000000 -6.734686 1 0.000000 0.0000 
3613 4 1 -5.467890 5.100000 -24.430051 0.000000 0.000000 0.000000 0.000000 -8.470481 1 0.000000 0.0000 
3865 4 1 -4.098231 5.100000 -24.432794 0.000000 0.000000 0.000000 0.000000 -8.415317 1 0.000000 0.0000 
3130 4 1 -3.240695 5.100000 -25.493197 0.000000 0.000000 0.000000 0.000000 -6.693334 1 0.000000 0.0000 
3382 4 1 -1.934582 5.100000 -25.493991 0.000000 0.000000 0.000000 0.000000 -6.748317 1 0.000000 0.0000 
3151 4 1 1.151810 5.100000 -25.495794 0.000000 0.000000 0.000000 0.000000 -6.724312 1 0.000000 0.0000 
3634 4 1 -1.075161 5.100000 -24.435427 0.000000 0.000000 0.000000 0.000000 -8.426861 1 0.000000 0.0000 
3886 4 1 0.293896 5.100000 -24.436024 0.000000 0.000000 0.000000 0.000000 -8.499384 1 0.000000 0.0000 
3403 4 1 2.457880 5.100000 -25.495721 0.000000 0.000000 0.000000 0.000000 -6.704799 1 0.000000 0.0000 
3655 4 1 3.315488 5.100000 -24.435609 0.000000 0.000000 0.000000 0.000000 -8.387068 1 0.000000 0.0000 
3172 4 1 5.545973 5.100000 -25.491553 0.000000 0.000000 0.000000 0.000000 -6.711691 1 0.000000 0.0000 
3907 4 1 4.684731 5.100000 -24.434341 0.000000 0.000000 0.000000 0.000000 -8.490322 1 0.000000 0.0000 
3424 4 1 6.852171 5.100000 -25.490381 0.000000 0.000000 0.000000 0.000000 -6.705470 1 0.000000 0.0000 
3676 4 1 7.710527 5.100000 -24.430306 0.000000 0.000000 0.000000 0.000000 -8.472278 1 0.000000 0.0000 
3193 4 1 9.949562 5.100000 -25.477993 0.000000 0.000000 0.000000 0.000000 -6.742443 1 0.000000 0.0000 
3445 4 1 11.256094 5.100000 -25.474459 0.000000 0.000000 0.000000 0.000000 -6.717507 1 0.000000 0.0000 